
     Program PWSCF v.6.0 (svn rev. 13079) starts on 25Apr2017 at 22:21: 5 

     This program is part of the open-source Quantum ESPRESSO suite
     for quantum simulation of materials; please cite
         "P. Giannozzi et al., J. Phys.:Condens. Matter 21 395502 (2009);
          URL http://www.quantum-espresso.org", 
     in publications or presentations arising from this work. More details at
     http://www.quantum-espresso.org/quote

     Parallel version (MPI & OpenMP), running on    1024 processor cores
     Number of MPI processes:               256
     Threads/MPI process:                     4
     R & G space division:  proc/nbgrp/npool/nimage =     256
     Reading input from relax.input

     Current dimensions of program PWSCF are:
     Max number of different atomic species (ntypx) = 10
     Max number of k-points (npk) =  40000
     Max angular momentum in pseudopotentials (lmaxx) =  3

     gamma-point specific algorithms are used

     Subspace diagonalization in iterative solution of the eigenvalue problem:
     one sub-group per band group will be used
     scalapack distributed-memory algorithm (size of sub-group: 11* 11 procs)

 
     Parallelization info
     --------------------
     sticks:   dense  smooth     PW     G-vecs:    dense   smooth      PW
     Min          48      48     11                 1440     1440     176
     Max          50      50     16                 1446     1446     184
     Sum       12379   12379   3091               369411   369411   46301
 


     bravais-lattice index     =            0
     lattice parameter (alat)  =       1.8897  a.u.
     unit-cell volume          =   16641.6691 (a.u.)^3
     number of atoms/cell      =          248
     number of atomic types    =            1
     number of electrons       =       992.00
     number of Kohn-Sham states=          501
     kinetic-energy cutoff     =      30.0000  Ry
     charge density cutoff     =     120.0000  Ry
     convergence threshold     =      1.0E-08
     mixing beta               =       0.3000
     number of iterations used =            8  plain     mixing
     Exchange-correlation      = LDA ( 1  1  0  0 0 0)
     nstep                     =           50


     celldm(1)=   1.889700  celldm(2)=   0.000000  celldm(3)=   0.000000
     celldm(4)=   0.000000  celldm(5)=   0.000000  celldm(6)=   0.000000

     crystal axes: (cart. coord. in units of alat)
               a(1) = (  20.466990   0.000000   0.000000 )  
               a(2) = ( -10.233490  17.724900   0.000000 )  
               a(3) = (   0.000000   0.000000   6.797990 )  

     reciprocal axes: (cart. coord. in units 2 pi/alat)
               b(1) = (  0.048859  0.028209  0.000000 )  
               b(2) = (  0.000000  0.056418  0.000000 )  
               b(3) = (  0.000000  0.000000  0.147102 )  


     PseudoPot. # 1 for  C read from file:
     ./C.pz-nc.UPF
     MD5 check sum: a91ed244500615f7cb1ba4954399d57e
     Pseudo is Norm-conserving, Zval =  4.0
     Generated using "atomic" code by A. Dal Corso  v.5.0.99 svn rev. 10869
     Using radial grid of 1073 points,  1 beta functions with: 
                l(1) =   1

     atomic species   valence    mass     pseudopotential
        C              4.00    12.01000      C( 1.00)

     No symmetry found



   Cartesian axes

     site n.     atom                  positions (alat units)
         1           C   tau(   1) = (   0.0232973   1.5113552   2.7540693  )
         2           C   tau(   2) = (   1.3127847   0.7668825   6.1924652  )
         3           C   tau(   3) = (   0.0319505   0.0414094   2.7506511  )
         4           C   tau(   4) = (   0.0354351   0.0394023   6.1959289  )
         5           C   tau(   5) = (   2.5780513   1.4897620   2.7367468  )
         6           C   tau(   6) = (   3.8716093   0.7640083   6.1655521  )
         7           C   tau(   7) = (   2.5872999   0.0290461   2.7375981  )
         8           C   tau(   8) = (   2.5960349   0.0316992   6.1789269  )
         9           C   tau(   9) = (   5.1504501   1.4821941   2.7298762  )
        10           C   tau(  10) = (   6.4293668   0.7639775   6.1655635  )
        11           C   tau(  11) = (   5.1504603   0.0213799   2.7321472  )
        12           C   tau(  12) = (   5.1504885   0.0270724   6.1627534  )
        13           C   tau(  13) = (   7.7228646   1.4896916   2.7367394  )
        14           C   tau(  14) = (   8.9881829   0.7667996   6.1925206  )
        15           C   tau(  15) = (   7.7136213   0.0289924   2.7375927  )
        16           C   tau(  16) = (   7.7049480   0.0316366   6.1789693  )
        17           C   tau(  17) = (  10.2776431   1.5112786   2.7541339  )
        18           C   tau(  18) = (  11.5442432   0.7776024   6.2045844  )
        19           C   tau(  19) = (  10.2689834   0.0413268   2.7506953  )
        20           C   tau(  20) = (  10.2655294   0.0393174   6.1960210  )
        21           C   tau(  21) = (  12.8328597   1.5216257   2.7720002  )
        22           C   tau(  22) = (  14.1031795   0.7884633   6.2113397  )
        23           C   tau(  23) = (  12.8295429   0.0490427   2.7676356  )
        24           C   tau(  24) = (  12.8208488   0.0516616   6.2093216  )
        25           C   tau(  25) = (  15.3839474   1.5212036   2.7816267  )
        26           C   tau(  26) = (  16.6647302   0.7884917   6.2112709  )
        27           C   tau(  27) = (  15.3839471   0.0536667   2.7838273  )
        28           C   tau(  28) = (  15.3839575   0.0593220   6.2148190  )
        29           C   tau(  29) = (  17.9350508   1.5216842   2.7718955  )
        30           C   tau(  30) = (  19.2236963   0.7776709   6.2044764  )
        31           C   tau(  31) = (  17.9383671   0.0490961   2.7675706  )
        32           C   tau(  32) = (  17.9470756   0.0517191   6.2092175  )
        33           C   tau(  33) = (  -1.2585602   3.7259187   2.7809585  )
        34           C   tau(  34) = (   0.0167273   2.9685663   6.2100549  )
        35           C   tau(  35) = (  -1.2550069   2.2550909   2.7675232  )
        36           C   tau(  36) = (  -1.2529098   2.2462190   6.2092345  )
        37           C   tau(  37) = (   1.2834725   3.7028138   2.7727086  )
        38           C   tau(  38) = (   2.5806001   2.9539409   6.1739838  )
        39           C   tau(  39) = (   1.2959218   2.2343964   2.7453758  )
        40           C   tau(  40) = (   1.3026547   2.2305136   6.2012927  )
        41           C   tau(  41) = (   3.8570553   3.6574367   2.7879549  )
        42           C   tau(  42) = (   5.1504964   2.9815621   6.0871281  )
        43           C   tau(  43) = (   3.8598002   2.2092653   2.7360400  )
        44           C   tau(  44) = (   3.8665155   2.2361126   6.1453061  )
        45           C   tau(  45) = (   6.4438514   3.6573665   2.7879413  )
        46           C   tau(  46) = (   7.7204161   2.9538659   6.1739763  )
        47           C   tau(  47) = (   6.4411056   2.2092126   2.7360282  )
        48           C   tau(  48) = (   6.4344694   2.2360720   6.1453051  )
        49           C   tau(  49) = (   9.0174652   3.7027101   2.7727140  )
        50           C   tau(  50) = (  10.2842527   2.9684999   6.2100910  )
        51           C   tau(  51) = (   9.0050125   2.2343041   2.7453981  )
        52           C   tau(  52) = (   8.9983195   2.2304423   6.2013125  )
        53           C   tau(  53) = (  11.5594849   3.7258474   2.7810366  )
        54           C   tau(  54) = (  12.8331079   2.9883278   6.2113274  )
        55           C   tau(  55) = (  11.5559247   2.2550086   2.7676255  )
        56           C   tau(  56) = (  11.5538781   2.2461489   6.2093182  )
        57           C   tau(  57) = (  14.1080011   3.7311988   2.7816379  )
        58           C   tau(  58) = (  15.3839595   2.9945284   6.2095179  )
        59           C   tau(  59) = (  14.1069023   2.2572147   2.7799307  )
        60           C   tau(  60) = (  14.1067842   2.2571230   6.2098283  )
        61           C   tau(  61) = (  16.6598979   3.7312217   2.7815760  )
        62           C   tau(  62) = (  17.9348267   2.9883637   6.2112556  )
        63           C   tau(  63) = (  16.6609938   2.2572461   2.7798570  )
        64           C   tau(  64) = (  16.6611484   2.2571454   6.2097697  )
        65           C   tau(  65) = (  -2.5374293   5.9409570   2.7809865  )
        66           C   tau(  66) = (  -1.2759638   5.1925181   6.2170357  )
        67           C   tau(  67) = (  -2.5361838   4.4649782   2.7837508  )
        68           C   tau(  68) = (  -2.5410741   4.4621142   6.2147803  )
        69           C   tau(  69) = (   0.0224690   5.9421892   2.8595770  )
        70           C   tau(  70) = (   1.2545318   5.1600253   6.1588850  )
        71           C   tau(  71) = (   0.0188638   4.4575462   2.8013293  )
        72           C   tau(  72) = (  -0.0010076   4.4383184   6.2108345  )
        73           C   tau(  73) = (   2.5558482   5.8464796   3.1134759  )
        74           C   tau(  74) = (   3.8009019   5.1276821   5.8332916  )
        75           C   tau(  75) = (   2.5631286   4.4181180   2.8393140  )
        76           C   tau(  76) = (   2.5602491   4.4197915   6.1074799  )
        77           C   tau(  77) = (   5.1504650   5.6824879   3.3851015  )
        78           C   tau(  78) = (   6.5001856   5.1276547   5.8332463  )
        79           C   tau(  79) = (   5.1504542   4.3416800   2.8597205  )
        80           C   tau(  80) = (   5.1505068   4.4429857   5.8991717  )
        81           C   tau(  81) = (   7.7450136   5.8463294   3.1134944  )
        82           C   tau(  82) = (   9.0465029   5.1599739   6.1588399  )
        83           C   tau(  83) = (   7.7377805   4.4179999   2.8392883  )
        84           C   tau(  84) = (   7.7407859   4.4197410   6.1074605  )
        85           C   tau(  85) = (  10.2784710   5.9421157   2.8595796  )
        86           C   tau(  86) = (  11.5769619   5.1924883   6.2170073  )
        87           C   tau(  87) = (  10.2820846   4.4574468   2.8013512  )
        88           C   tau(  88) = (  10.3020155   4.4382577   6.2108223  )
        89           C   tau(  89) = (  12.8383562   5.9409086   2.7810316  )
        90           C   tau(  90) = (  14.1138951   5.2067290   6.2112444  )
        91           C   tau(  91) = (  12.8371110   4.4649357   2.7838219  )
        92           C   tau(  92) = (  12.8420472   4.4620846   6.2147974  )
        93           C   tau(  93) = (  15.3839444   5.9402937   2.7719341  )
        94           C   tau(  94) = (  16.6540541   5.2067380   6.2112465  )
        95           C   tau(  95) = (  15.3839429   4.4691605   2.7798804  )
        96           C   tau(  96) = (  15.3839683   4.4692932   6.2097531  )
        97           C   tau(  97) = (  -3.8143560   8.1583401   2.7540910  )
        98           C   tau(  98) = (  -2.5556373   7.4239996   6.2100682  )
        99           C   tau(  99) = (  -3.8094174   6.6794555   2.7675644  )
       100           C   tau( 100) = (  -3.8160237   6.6856539   6.2092306  )
       101           C   tau( 101) = (  -1.2864229   8.1539304   2.7727184  )
       102           C   tau( 102) = (  -0.0388732   7.4001806   6.1589031  )
       103           C   tau( 103) = (  -1.2650969   6.6814083   2.8013471  )
       104           C   tau( 104) = (  -1.2916532   6.6737340   6.2108519  )
       105           C   tau( 105) = (   1.2062262   8.1840682   3.1135135  )
       106           C   tau( 106) = (   2.3615589   7.2926207   5.5616286  )
       107           C   tau( 107) = (   1.2881035   6.6729105   3.0475874  )
       108           C   tau( 108) = (   1.2004174   6.6222324   6.0871045  )
       109           C   tau( 109) = (   3.8532686   6.2506825   3.7720475  )
       110           C   tau( 110) = (   3.5022139   6.4533307   5.1746849  )
       111           C   tau( 111) = (   7.9394210   7.2925620   5.5615902  )
       112           C   tau( 112) = (   6.4476106   6.2506599   3.7719501  )
       113           C   tau( 113) = (   6.7987877   6.4533520   5.1747383  )
       114           C   tau( 114) = (   9.0947087   8.1839339   3.1134536  )
       115           C   tau( 115) = (  10.3398911   7.4001837   6.1587757  )
       116           C   tau( 116) = (   9.0128421   6.6728035   3.0475616  )
       117           C   tau( 117) = (   9.1006105   6.6221923   6.0870256  )
       118           C   tau( 118) = (  11.5873733   8.1538932   2.7727758  )
       119           C   tau( 119) = (  12.8566358   7.4240116   6.2099955  )
       120           C   tau( 120) = (  11.5660387   6.6813518   2.8013785  )
       121           C   tau( 121) = (  11.5926465   6.6737322   6.2107528  )
       122           C   tau( 122) = (  14.1152888   8.1583229   2.7541294  )
       123           C   tau( 123) = (  15.3839798   7.4282722   6.2044732  )
       124           C   tau( 124) = (  14.1103354   6.6794412   2.7675961  )
       125           C   tau( 125) = (  14.1169988   6.6856494   6.2092014  )
       126           C   tau( 126) = (  -5.0830334  10.3773412   2.7422683  )
       127           C   tau( 127) = (  -3.8143250   9.6472662   6.1925042  )
       128           C   tau( 128) = (  -5.0830365   8.9008081   2.7506680  )
       129           C   tau( 129) = (  -5.0829985   8.9048027   6.1959612  )
       130           C   tau( 130) = (  -2.5556517  10.3815929   2.7367280  )
       131           C   tau( 131) = (  -1.2863919   9.6516325   6.1740139  )
       132           C   tau( 132) = (  -2.5518718   8.8989237   2.7453817  )
       133           C   tau( 133) = (  -2.5518355   8.9066600   6.2013119  )
       134           C   tau( 134) = (  -0.0388819  10.4053639   2.7879359  )
       135           C   tau( 135) = (   1.2062534   9.6214389   5.8332609  )
       136           C   tau( 136) = (  -0.0271250   8.9044966   2.8392906  )
       137           C   tau( 137) = (  -0.0270731   8.9010397   6.1075072  )
       138           C   tau( 138) = (   2.3615668  10.5128642   3.3851141  )
       139           C   tau( 139) = (   2.2050510   9.1054533   3.7719706  )
       140           C   tau( 140) = (   2.2050413   8.7000537   5.1747376  )
       141           C   tau( 141) = (   7.9393728  10.5129243   3.3850889  )
       142           C   tau( 142) = (   9.0947500   9.6215778   5.8332283  )
       143           C   tau( 143) = (   8.0959257   9.1054487   3.7720074  )
       144           C   tau( 144) = (   8.0959896   8.7000599   5.1746380  )
       145           C   tau( 145) = (  10.3398398  10.4053575   2.7879864  )
       146           C   tau( 146) = (  11.5874126   9.6516745   6.1739252  )
       147           C   tau( 147) = (  10.3280753   8.9044380   2.8393474  )
       148           C   tau( 148) = (  10.3280965   8.9011054   6.1073664  )
       149           C   tau( 149) = (  12.8565982  10.3815781   2.7367950  )
       150           C   tau( 150) = (  14.1153294   9.6472810   6.1924888  )
       151           C   tau( 151) = (  12.8528169   8.8989195   2.7454470  )
       152           C   tau( 152) = (  12.8528507   8.9066680   6.2012554  )
       153           C   tau( 153) = (  -6.3531148  12.5988847   2.7356686  )
       154           C   tau( 154) = (  -5.0829884  11.8653366   6.1746010  )
       155           C   tau( 155) = (  -6.3500044  11.1199557   2.7376162  )
       156           C   tau( 156) = (  -6.3566035  11.1261777   6.1789789  )
       157           C   tau( 157) = (  -3.8129370  12.5988832   2.7356526  )
       158           C   tau( 158) = (  -2.5373754  11.8646503   6.1655920  )
       159           C   tau( 159) = (  -3.8160414  11.1199538   2.7375824  )
       160           C   tau( 160) = (  -3.8093649  11.1261658   6.1789817  )
       161           C   tau( 161) = (  -1.2759575  12.6130814   2.7298776  )
       162           C   tau( 162) = (   0.0225062  11.8633799   6.0871566  )
       163           C   tau( 163) = (  -1.2916724  11.1318393   2.7360191  )
       164           C   tau( 164) = (  -1.2650510  11.1241681   6.1453426  )
       165           C   tau( 165) = (   1.2545363  12.6455583   2.7879747  )
       166           C   tau( 166) = (   2.5558745  11.9590879   5.8332828  )
       167           C   tau( 167) = (   1.2003886  11.1833272   2.8597140  )
       168           C   tau( 168) = (   1.2881470  11.1326145   5.8991854  )
       169           C   tau( 169) = (   3.8008708  12.6779337   3.1134923  )
       170           C   tau( 170) = (   5.1504992  12.1230433   5.5616030  )
       171           C   tau( 171) = (   3.5022271  11.3522186   3.7720594  )
       172           C   tau( 172) = (   3.8532866  11.5548854   5.1746602  )
       173           C   tau( 173) = (   6.5001778  12.6779465   3.1135216  )
       174           C   tau( 174) = (   7.7450465  11.9592227   5.8332202  )
       175           C   tau( 175) = (   6.7987404  11.3521844   3.7719757  )
       176           C   tau( 176) = (   6.4476379  11.5548935   5.1747493  )
       177           C   tau( 177) = (   9.0464489  12.6455956   2.7879641  )
       178           C   tau( 178) = (  10.2785103  11.8634491   6.0870977  )
       179           C   tau( 179) = (   9.1005778  11.1833574   2.8597204  )
       180           C   tau( 180) = (   9.0128583  11.1327148   5.8991278  )
       181           C   tau( 181) = (  11.5769181  12.6130965   2.7298943  )
       182           C   tau( 182) = (  12.8384026  11.8646964   6.1655754  )
       183           C   tau( 183) = (  11.5926204  11.1318383   2.7360766  )
       184           C   tau( 184) = (  11.5660719  11.1242262   6.1452879  )
       185           C   tau( 185) = (  -7.6339260  14.8172873   2.7356678  )
       186           C   tau( 186) = (  -6.3589457  14.0744457   6.1649213  )
       187           C   tau( 187) = (  -7.6249736  13.3435138   2.7321585  )
       188           C   tau( 188) = (  -7.6298463  13.3406895   6.1627542  )
       189           C   tau( 189) = (  -5.0830252  14.8110991   2.7374629  )
       190           C   tau( 190) = (  -3.8070258  14.0744210   6.1649422  )
       191           C   tau( 191) = (  -5.0830233  13.3363248   2.7371829  )
       192           C   tau( 192) = (  -5.0829863  13.3364825   6.1666590  )
       193           C   tau( 193) = (  -2.5321253  14.8172675   2.7356639  )
       194           C   tau( 194) = (  -1.2585004  14.0797142   6.1655863  )
       195           C   tau( 195) = (  -2.5410635  13.3434985   2.7321471  )
       196           C   tau( 196) = (  -2.5361168  13.3406552   6.1627874  )
       197           C   tau( 197) = (   0.0167696  14.8370615   2.7367729  )
       198           C   tau( 198) = (   1.2835104  14.1028031   6.1739647  )
       199           C   tau( 199) = (  -0.0009939  13.3672817   2.7360566  )
       200           C   tau( 200) = (   0.0189361  13.3480372   6.1453223  )
       201           C   tau( 201) = (   2.5806076  14.8517103   2.7727686  )
       202           C   tau( 202) = (   3.8570970  14.1481185   6.1587938  )
       203           C   tau( 203) = (   2.5602571  13.3858056   2.8393506  )
       204           C   tau( 204) = (   2.5631793  13.3874462   6.1074145  )
       205           C   tau( 205) = (   5.1504765  14.8240866   2.8596156  )
       206           C   tau( 206) = (   6.4438556  14.1481775   6.1587881  )
       207           C   tau( 207) = (   5.1504916  13.3626097   3.0476013  )
       208           C   tau( 208) = (   5.1504847  13.4639118   6.0870186  )
       209           C   tau( 209) = (   7.7203633  14.8517757   2.7727711  )
       210           C   tau( 210) = (   9.0174765  14.1028870   6.1739080  )
       211           C   tau( 211) = (   7.7407318  13.3858313   2.8393441  )
       212           C   tau( 212) = (   7.7377859  13.3875396   6.1073974  )
       213           C   tau( 213) = (  10.2841894  14.8371094   2.7367684  )
       214           C   tau( 214) = (  11.5595074  14.0797712   6.1655274  )
       215           C   tau( 215) = (  10.3019699  13.3673249   2.7360496  )
       216           C   tau( 216) = (  10.2820802  13.3481237   6.1452610  )
       217           C   tau( 217) = (  -8.9228164  17.0280222   2.7422687  )
       218           C   tau( 218) = (  -7.6341241  16.2840251   6.1745318  )
       219           C   tau( 219) = (  -8.9131690  15.5594605   2.7376065  )
       220           C   tau( 220) = (  -8.9110815  15.5506137   6.1789052  )
       221           C   tau( 221) = (  -6.3638422  17.0171398   2.7356640  )
       222           C   tau( 222) = (  -5.0829928  16.2844536   6.1649168  )
       223           C   tau( 223) = (  -6.3602279  15.5484978   2.7371858  )
       224           C   tau( 224) = (  -6.3600627  15.5484322   6.1666184  )
       225           C   tau( 225) = (  -3.8022298  17.0171225   2.7356555  )
       226           C   tau( 226) = (  -2.5318677  16.2839673   6.1745898  )
       227           C   tau( 227) = (  -3.8058239  15.5484741   2.7371814  )
       228           C   tau( 228) = (  -3.8059239  15.5484064   6.1666512  )
       229           C   tau( 229) = (  -1.2432348  17.0279628   2.7422770  )
       230           C   tau( 230) = (   0.0233760  16.2942827   6.1925240  )
       231           C   tau( 231) = (  -1.2528663  15.5594099   2.7376091  )
       232           C   tau( 232) = (  -1.2549170  15.5505382   6.1789807  )
       233           C   tau( 233) = (   1.3128286  17.0387755   2.7541510  )
       234           C   tau( 234) = (   2.5781198  16.3158435   6.2100804  )
       235           C   tau( 235) = (   1.3026927  15.5751135   2.7454333  )
       236           C   tau( 236) = (   1.2959896  15.5712045   6.2013075  )
       237           C   tau( 237) = (   3.8716102  17.0416381   2.7810578  )
       238           C   tau( 238) = (   5.1504635  16.3233836   6.2170092  )
       239           C   tau( 239) = (   3.8665205  15.5695125   2.8013970  )
       240           C   tau( 240) = (   3.8598415  15.5963274   6.2107965  )
       241           C   tau( 241) = (   6.4293162  17.0416716   2.7810341  )
       242           C   tau( 242) = (   7.7228296  16.3159055   6.2099987  )
       243           C   tau( 243) = (   6.4344266  15.5695395   2.8013971  )
       244           C   tau( 244) = (   6.4411090  15.5963775   6.2107632  )
       245           C   tau( 245) = (   8.9881106  17.0388451   2.7541063  )
       246           C   tau( 246) = (  10.2776105  16.2943567   6.1924334  )
       247           C   tau( 247) = (   8.9982515  15.5751750   2.7454296  )
       248           C   tau( 248) = (   9.0049858  15.5712908   6.2012243  )

     number of k points=     1  Marzari-Vanderbilt smearing, width (Ry)=  0.0050
                       cart. coord. in units 2pi/alat
        k(    1) = (   0.0000000   0.0000000   0.0000000), wk =   2.0000000

     Dense  grid:   184706 G-vectors     FFT dimensions: ( 140, 140,  48)

     Estimated max dynamical RAM per process >       9.45Mb

     Estimated total allocated dynamical RAM >    2418.20Mb

     Initial potential from superposition of free atoms

     starting charge  991.99132, renormalised to  992.00000

     negative rho (up, down):  9.463E-05 0.000E+00
     Starting wfc are  992 randomized atomic wfcs

     total cpu time spent up to now is        7.7 secs

     per-process dynamical memory:    25.5 Mb

     Self-consistent Calculation

     iteration #  1     ecut=    30.00 Ry     beta=0.30
     Davidson diagonalization with overlap
     ethr =  1.00E-02,  avg # of iterations =  2.0

     negative rho (up, down):  5.444E-05 0.000E+00

     total cpu time spent up to now is       17.6 secs

     total energy              =   -2799.71418660 Ry
     Harris-Foulkes estimate   =   -2804.31385077 Ry
     estimated scf accuracy    <      14.55695123 Ry

     iteration #  2     ecut=    30.00 Ry     beta=0.30
     Davidson diagonalization with overlap
     ethr =  1.47E-03,  avg # of iterations =  1.0

     negative rho (up, down):  6.771E-06 0.000E+00

     total cpu time spent up to now is       23.0 secs

     total energy              =   -2797.87752958 Ry
     Harris-Foulkes estimate   =   -2800.32430157 Ry
     estimated scf accuracy    <       5.03170681 Ry

     iteration #  3     ecut=    30.00 Ry     beta=0.30
     Davidson diagonalization with overlap
     ethr =  5.07E-04,  avg # of iterations =  6.0

     negative rho (up, down):  1.978E-06 0.000E+00

     total cpu time spent up to now is       42.3 secs

     total energy              =   -2798.03323865 Ry
     Harris-Foulkes estimate   =   -2798.85784329 Ry
     estimated scf accuracy    <       3.95310491 Ry

     iteration #  4     ecut=    30.00 Ry     beta=0.30
     Davidson diagonalization with overlap
     ethr =  3.98E-04,  avg # of iterations =  5.0

     total cpu time spent up to now is       55.8 secs

     total energy              =   -2798.43795272 Ry
     Harris-Foulkes estimate   =   -2798.53743455 Ry
     estimated scf accuracy    <       0.41950416 Ry

     iteration #  5     ecut=    30.00 Ry     beta=0.30
     Davidson diagonalization with overlap
     ethr =  4.23E-05,  avg # of iterations =  5.0

     total cpu time spent up to now is       69.9 secs

     total energy              =   -2798.48539805 Ry
     Harris-Foulkes estimate   =   -2798.50612496 Ry
     estimated scf accuracy    <       0.11485092 Ry

     iteration #  6     ecut=    30.00 Ry     beta=0.30
     Davidson diagonalization with overlap
     ethr =  1.16E-05,  avg # of iterations =  9.0

     total cpu time spent up to now is       91.7 secs

     total energy              =   -2798.48306731 Ry
     Harris-Foulkes estimate   =   -2798.51946856 Ry
     estimated scf accuracy    <       0.33301590 Ry

     iteration #  7     ecut=    30.00 Ry     beta=0.30
     Davidson diagonalization with overlap
     ethr =  1.16E-05,  avg # of iterations =  8.0

     total cpu time spent up to now is      110.8 secs

     total energy              =   -2798.49028763 Ry
     Harris-Foulkes estimate   =   -2798.49947206 Ry
     estimated scf accuracy    <       0.03542401 Ry

     iteration #  8     ecut=    30.00 Ry     beta=0.30
     Davidson diagonalization with overlap
     ethr =  3.57E-06,  avg # of iterations =  5.0

     total cpu time spent up to now is      125.5 secs

     total energy              =   -2798.49527898 Ry
     Harris-Foulkes estimate   =   -2798.49656828 Ry
     estimated scf accuracy    <       0.00799824 Ry

     iteration #  9     ecut=    30.00 Ry     beta=0.30
     Davidson diagonalization with overlap
     ethr =  8.06E-07,  avg # of iterations =  5.0

     total cpu time spent up to now is      138.6 secs

     total energy              =   -2798.49567876 Ry
     Harris-Foulkes estimate   =   -2798.49595148 Ry
     estimated scf accuracy    <       0.00155291 Ry

     iteration # 10     ecut=    30.00 Ry     beta=0.30
     Davidson diagonalization with overlap
     ethr =  1.57E-07,  avg # of iterations =  5.0

     total cpu time spent up to now is      152.2 secs

     total energy              =   -2798.49580903 Ry
     Harris-Foulkes estimate   =   -2798.49585632 Ry
     estimated scf accuracy    <       0.00018143 Ry

     iteration # 11     ecut=    30.00 Ry     beta=0.30
     Davidson diagonalization with overlap
     ethr =  1.83E-08,  avg # of iterations =  5.0

     total cpu time spent up to now is      168.7 secs

     total energy              =   -2798.49583843 Ry
     Harris-Foulkes estimate   =   -2798.49586180 Ry
     estimated scf accuracy    <       0.00015264 Ry

     iteration # 12     ecut=    30.00 Ry     beta=0.30
     Davidson diagonalization with overlap
     ethr =  1.54E-08,  avg # of iterations =  4.0

     total cpu time spent up to now is      179.7 secs

     total energy              =   -2798.49584339 Ry
     Harris-Foulkes estimate   =   -2798.49585956 Ry
     estimated scf accuracy    <       0.00012750 Ry

     iteration # 13     ecut=    30.00 Ry     beta=0.30
     Davidson diagonalization with overlap
     ethr =  1.29E-08,  avg # of iterations =  4.0

     total cpu time spent up to now is      190.6 secs

     total energy              =   -2798.49585131 Ry
     Harris-Foulkes estimate   =   -2798.49585264 Ry
     estimated scf accuracy    <       0.00000661 Ry

     iteration # 14     ecut=    30.00 Ry     beta=0.30
     Davidson diagonalization with overlap
     ethr =  6.66E-10,  avg # of iterations =  5.0

     total cpu time spent up to now is      205.4 secs

     total energy              =   -2798.49585267 Ry
     Harris-Foulkes estimate   =   -2798.49585254 Ry
     estimated scf accuracy    <       0.00000319 Ry

     iteration # 15     ecut=    30.00 Ry     beta=0.30
     Davidson diagonalization with overlap
     ethr =  3.21E-10,  avg # of iterations =  4.0

     total cpu time spent up to now is      217.0 secs

     total energy              =   -2798.49585228 Ry
     Harris-Foulkes estimate   =   -2798.49585300 Ry
     estimated scf accuracy    <       0.00000113 Ry

     iteration # 16     ecut=    30.00 Ry     beta=0.30
     Davidson diagonalization with overlap
     ethr =  1.14E-10,  avg # of iterations =  5.0

     total cpu time spent up to now is      231.3 secs

     total energy              =   -2798.49585202 Ry
     Harris-Foulkes estimate   =   -2798.49585251 Ry
     estimated scf accuracy    <       0.00000119 Ry

     iteration # 17     ecut=    30.00 Ry     beta=0.30
     Davidson diagonalization with overlap
     ethr =  1.14E-10,  avg # of iterations =  4.0

     total cpu time spent up to now is      242.6 secs

     total energy              =   -2798.49585206 Ry
     Harris-Foulkes estimate   =   -2798.49585224 Ry
     estimated scf accuracy    <       0.00000129 Ry

     iteration # 18     ecut=    30.00 Ry     beta=0.30
     Davidson diagonalization with overlap
     ethr =  1.14E-10,  avg # of iterations =  4.0

     total cpu time spent up to now is      253.5 secs

     total energy              =   -2798.49585242 Ry
     Harris-Foulkes estimate   =   -2798.49585218 Ry
     estimated scf accuracy    <       0.00000019 Ry

     iteration # 19     ecut=    30.00 Ry     beta=0.30
     Davidson diagonalization with overlap
     ethr =  1.90E-11,  avg # of iterations =  4.0

     total cpu time spent up to now is      264.8 secs

     total energy              =   -2798.49585243 Ry
     Harris-Foulkes estimate   =   -2798.49585244 Ry
     estimated scf accuracy    <       0.00000002 Ry

     iteration # 20     ecut=    30.00 Ry     beta=0.30
     Davidson diagonalization with overlap
     ethr =  1.75E-12,  avg # of iterations =  5.0

     total cpu time spent up to now is      280.1 secs

     total energy              =   -2798.49585244 Ry
     Harris-Foulkes estimate   =   -2798.49585244 Ry
     estimated scf accuracy    <       0.00000001 Ry

     iteration # 21     ecut=    30.00 Ry     beta=0.30
     Davidson diagonalization with overlap
     ethr =  1.01E-12,  avg # of iterations =  5.0

     total cpu time spent up to now is      294.1 secs

     End of self-consistent calculation

          k = 0.0000 0.0000 0.0000 ( 23151 PWs)   bands (ev):

   -13.5654 -13.3636 -13.3635 -13.1556 -13.1271 -13.1270 -13.1012 -13.0049
   -12.7650 -12.7650 -12.7475 -12.7475 -12.7415 -12.5765 -12.5765 -12.5648
   -12.5647 -12.5004 -12.4303 -12.2629 -12.1848 -12.1847 -12.1098 -12.0893
   -12.0893 -12.0561 -12.0560 -12.0441 -11.9557 -11.9556 -11.8536 -11.7970
   -11.7281 -11.6918 -11.6918 -11.6155 -11.5045 -11.5045 -11.2961 -11.2960
   -11.1220 -11.0328 -11.0327 -11.0192 -11.0192 -10.9872 -10.9642 -10.9641
   -10.8519 -10.7441 -10.7412 -10.7412 -10.7330 -10.7329 -10.6982 -10.6911
   -10.5404 -10.5404 -10.5402 -10.5271 -10.5271 -10.3835 -10.3134 -10.3134
   -10.2549 -10.2549 -10.0503 -10.0189  -9.9894  -9.8888  -9.8888  -9.8229
    -9.6768  -9.6768  -9.3396  -9.3396  -9.3362  -9.3362  -9.2639  -9.2639
    -9.2412  -9.1968  -9.1609  -9.1428  -9.1428  -9.0589  -9.0545  -9.0545
    -9.0360  -9.0153  -9.0153  -8.9946  -8.9462  -8.9462  -8.8314  -8.8314
    -8.8300  -8.7858  -8.7858  -8.7478  -8.7478  -8.6944  -8.6238  -8.6117
    -8.5774  -8.5774  -8.5583  -8.4886  -8.4886  -8.4131  -7.8813  -7.8812
    -7.8766  -7.8048  -7.8048  -7.7840  -7.6208  -7.6208  -7.5770  -7.5770
    -7.4254  -7.2466  -7.2466  -7.1207  -7.0586  -7.0586  -6.9758  -6.9758
    -6.9088  -6.8244  -6.7408  -6.7408  -6.6594  -6.5804  -6.4175  -6.4175
    -6.3855  -6.3656  -6.3656  -6.2551  -6.2551  -6.2457  -6.2456  -6.2256
    -6.1763  -6.1489  -6.1440  -6.1228  -6.1228  -6.0922  -6.0740  -6.0740
    -5.9747  -5.9747  -5.8959  -5.8959  -5.8833  -5.7682  -5.7682  -5.6135
    -5.5719  -5.5097  -5.5097  -5.4251  -5.4251  -5.3349  -5.0662  -5.0662
    -4.9257  -4.8628  -4.8204  -4.8067  -4.8067  -4.7854  -4.7854  -4.7308
    -4.7308  -4.7290  -4.6645  -4.6550  -4.6550  -4.5844  -4.5844  -4.4682
    -4.4221  -4.2921  -4.2921  -3.9127  -3.9127  -3.8023  -3.5875  -3.5875
    -3.5850  -3.5589  -3.5589  -3.4754  -3.4175  -3.4175  -3.4034  -3.3561
    -3.3561  -3.3466  -3.3341  -3.3341  -3.2987  -3.2167  -3.1537  -3.1371
    -3.1219  -3.1219  -3.0875  -3.0875  -3.0309  -3.0309  -3.0301  -3.0301
    -3.0183  -2.9970  -2.9259  -2.9259  -2.8772  -2.8772  -2.8752  -2.7728
    -2.7358  -2.6720  -2.6720  -2.6260  -2.5927  -2.5927  -2.4745  -2.4745
    -2.4096  -2.1930  -2.1585  -2.1585  -1.9641  -1.9640  -1.9566  -1.8779
    -1.8778  -1.8727  -1.8726  -1.7948  -1.7701  -1.7298  -1.7298  -1.6089
    -1.6089  -1.5718  -1.5158  -1.4606  -1.4606  -1.4513  -1.3625  -1.3625
    -1.3184  -1.3184  -1.3153  -1.3153  -1.3110  -1.3092  -1.2518  -1.2472
    -1.2472  -1.2284  -1.2074  -1.2074  -1.1957  -1.1957  -1.1768  -1.1693
    -1.1111  -1.1088  -1.1088  -1.0930  -1.0667  -1.0330  -1.0330  -0.9531
    -0.9531  -0.8633  -0.8632  -0.8299  -0.7954  -0.7676  -0.7483  -0.7483
    -0.7324  -0.7324  -0.7277  -0.6566  -0.6566  -0.5915  -0.5915  -0.5703
    -0.5702  -0.5673  -0.5331  -0.5204  -0.4851  -0.4851  -0.4729  -0.4640
    -0.4640  -0.4461  -0.4461  -0.4378  -0.4378  -0.4049  -0.4048  -0.3745
    -0.3676  -0.3676  -0.3209  -0.2824  -0.2824  -0.2633  -0.2186  -0.2186
    -0.1381  -0.1230  -0.1230  -0.0816  -0.0816  -0.0732  -0.0478  -0.0123
    -0.0123   0.0441   0.0476   0.0476   0.0792   0.0800   0.0800   0.1364
     0.1638   0.1638   0.2088   0.2088   0.2524   0.2524   0.2656   0.2741
     0.3513   0.3513   0.4080   0.4479   0.5563   0.5674   0.6055   0.6062
     0.6062   0.6096   0.6096   0.6684   0.6840   0.6840   0.7170   0.7170
     0.8586   0.8586   0.9449   0.9840   1.0115   1.0115   1.0240   1.0414
     1.0553   1.0554   1.0697   1.0798   1.0798   1.0887   1.0887   1.0967
     1.1121   1.1122   1.1194   1.1194   1.1290   1.1733   1.1789   1.1789
     1.1800   1.1800   1.1877   1.1877   1.2164   1.2164   1.2339   1.3186
     1.3740   1.4748   1.4810   1.4810   1.5303   1.5578   1.5579   1.5593
     1.5593   1.5860   1.6516   1.7055   1.7055   1.8394   1.8395   1.8953
     1.9905   1.9905   2.1162   2.1162   2.1190   2.1421   2.2365   2.2365
     2.3947   2.4011   2.4011   2.4177   2.4177   2.4326   2.4362   2.4520
     2.4713   2.4713   2.4815   2.4815   2.5048   2.5671   2.5671   2.6071
     2.6243   2.6312   2.6312   2.6479   2.6724   2.6725   2.7467   2.7467
     2.7797   2.7797   2.7797   2.7983   2.8610   2.8610   2.9027   2.9388
     2.9388   2.9537   3.0097   3.0097   3.0653   3.0653   3.1220   3.2133
     3.2443   3.3700   3.3700   3.5228   3.5229   3.6130   3.6130   3.7224
     3.7225   3.8942   4.0380   4.0380   4.0522   4.0522   4.0660   4.0696
     4.0696   4.0701   4.0789   4.0958   4.0958   4.1175   4.1611   4.1611
     4.2203   4.3907   4.4218   4.4218   4.5128   4.5129   4.5136   4.5840
     4.7782   4.7783   4.9886   4.9887   5.0458   5.4670   5.7468   5.7469
     5.9958   5.9958   6.3955   6.5630   6.6075

     the Fermi energy is     5.8095 ev

!    total energy              =   -2798.49585216 Ry
     Harris-Foulkes estimate   =   -2798.49585244 Ry
     estimated scf accuracy    <          4.6E-09 Ry

     convergence has been achieved in  21 iterations

     Forces acting on atoms (Ry/au):

     atom    1 type  1   force =     0.00062727   -0.00010940   -0.00118503
     atom    2 type  1   force =    -0.00043231    0.00048627    0.00121395
     atom    3 type  1   force =    -0.00045622    0.00021883   -0.00067596
     atom    4 type  1   force =     0.00042054   -0.00027694    0.00069203
     atom    5 type  1   force =     0.00073502   -0.00115692   -0.00074000
     atom    6 type  1   force =    -0.00005467   -0.00019179    0.00059996
     atom    7 type  1   force =    -0.00107163    0.00113229   -0.00055532
     atom    8 type  1   force =     0.00075832   -0.00008730    0.00050169
     atom    9 type  1   force =    -0.00003034   -0.00081151   -0.00007966
     atom   10 type  1   force =     0.00006244   -0.00018224    0.00060307
     atom   11 type  1   force =    -0.00006091    0.00077430   -0.00070521
     atom   12 type  1   force =    -0.00003550   -0.00089861    0.00051481
     atom   13 type  1   force =    -0.00066851   -0.00112808   -0.00074114
     atom   14 type  1   force =     0.00043698    0.00050295    0.00120608
     atom   15 type  1   force =     0.00114527    0.00112957   -0.00055573
     atom   16 type  1   force =    -0.00070773   -0.00006903    0.00049981
     atom   17 type  1   force =    -0.00072769   -0.00012075   -0.00118712
     atom   18 type  1   force =     0.00074866    0.00037709    0.00152851
     atom   19 type  1   force =     0.00039127    0.00023785   -0.00067691
     atom   20 type  1   force =    -0.00046106   -0.00026898    0.00069151
     atom   21 type  1   force =     0.00033537    0.00014884   -0.00089227
     atom   22 type  1   force =     0.00023578    0.00025694    0.00097177
     atom   23 type  1   force =     0.00075229    0.00005476   -0.00046633
     atom   24 type  1   force =    -0.00110185   -0.00117134    0.00053538
     atom   25 type  1   force =    -0.00004713   -0.00038666   -0.00059887
     atom   26 type  1   force =    -0.00022318    0.00021907    0.00098206
     atom   27 type  1   force =    -0.00001716    0.00087405   -0.00049366
     atom   28 type  1   force =    -0.00000296   -0.00082877    0.00067317
     atom   29 type  1   force =    -0.00025232    0.00015332   -0.00088554
     atom   30 type  1   force =    -0.00073266    0.00039867    0.00152434
     atom   31 type  1   force =    -0.00069798    0.00006029   -0.00046342
     atom   32 type  1   force =     0.00111512   -0.00118574    0.00054026
     atom   33 type  1   force =    -0.00013505   -0.00017702   -0.00057283
     atom   34 type  1   force =    -0.00134341    0.00001519    0.00072511
     atom   35 type  1   force =    -0.00041236    0.00059961   -0.00046184
     atom   36 type  1   force =     0.00153050   -0.00037189    0.00053825
     atom   37 type  1   force =    -0.00117791   -0.00075826   -0.00011100
     atom   38 type  1   force =    -0.00009990   -0.00142582    0.00014464
     atom   39 type  1   force =    -0.00109350    0.00077933   -0.00026127
     atom   40 type  1   force =     0.00122799   -0.00053852    0.00026350
     atom   41 type  1   force =     0.00319074   -0.00228070    0.00003903
     atom   42 type  1   force =    -0.00000598    0.00013617   -0.00112437
     atom   43 type  1   force =    -0.00103792    0.00142130    0.00046544
     atom   44 type  1   force =    -0.00135230   -0.00055732   -0.00027526
     atom   45 type  1   force =    -0.00314231   -0.00226795    0.00003352
     atom   46 type  1   force =     0.00002354   -0.00138209    0.00014423
     atom   47 type  1   force =     0.00105232    0.00146271    0.00046783
     atom   48 type  1   force =     0.00136180   -0.00051580   -0.00027779
     atom   49 type  1   force =     0.00112082   -0.00077625   -0.00010862
     atom   50 type  1   force =     0.00137607   -0.00001700    0.00072516
     atom   51 type  1   force =     0.00111344    0.00075975   -0.00025699
     atom   52 type  1   force =    -0.00119375   -0.00059267    0.00026073
     atom   53 type  1   force =     0.00013922   -0.00013150   -0.00057395
     atom   54 type  1   force =     0.00036400    0.00007940    0.00097438
     atom   55 type  1   force =     0.00039288    0.00064895   -0.00046600
     atom   56 type  1   force =    -0.00157311   -0.00031286    0.00054030
     atom   57 type  1   force =    -0.00031155    0.00014191   -0.00060476
     atom   58 type  1   force =    -0.00000551    0.00001427    0.00090649
     atom   59 type  1   force =    -0.00006916   -0.00003439   -0.00059493
     atom   60 type  1   force =    -0.00055244   -0.00029993    0.00056585
     atom   61 type  1   force =     0.00031872    0.00019952   -0.00059998
     atom   62 type  1   force =    -0.00033125    0.00006574    0.00098021
     atom   63 type  1   force =     0.00008443   -0.00000022   -0.00058418
     atom   64 type  1   force =     0.00054601   -0.00027671    0.00057518
     atom   65 type  1   force =    -0.00020444   -0.00002543   -0.00056912
     atom   66 type  1   force =    -0.00068260   -0.00044045    0.00005369
     atom   67 type  1   force =    -0.00078646   -0.00048105   -0.00048867
     atom   68 type  1   force =     0.00066174    0.00036075    0.00068045
     atom   69 type  1   force =     0.00016247    0.00009329    0.00107185
     atom   70 type  1   force =    -0.00359746    0.00160509   -0.00000679
     atom   71 type  1   force =     0.00023020   -0.00148176    0.00027385
     atom   72 type  1   force =     0.00179000   -0.00016441   -0.00048610
     atom   73 type  1   force =    -0.00211203    0.00124916   -0.00716628
     atom   74 type  1   force =     0.00214057   -0.00124460    0.00712537
     atom   75 type  1   force =    -0.00209795    0.00078517   -0.00507925
     atom   76 type  1   force =     0.00171928   -0.00138229    0.00500930
     atom   77 type  1   force =     0.00007313    0.00191216   -0.00715109
     atom   78 type  1   force =    -0.00212404   -0.00115533    0.00710657
     atom   79 type  1   force =    -0.00002767   -0.00055242   -0.00829966
     atom   80 type  1   force =     0.00003546   -0.00108222   -0.00226226
     atom   81 type  1   force =     0.00210429    0.00121441   -0.00716114
     atom   82 type  1   force =     0.00355133    0.00158639   -0.00000694
     atom   83 type  1   force =     0.00206303    0.00078042   -0.00507733
     atom   84 type  1   force =    -0.00173229   -0.00139355    0.00502254
     atom   85 type  1   force =    -0.00006210    0.00009194    0.00107154
     atom   86 type  1   force =     0.00076919   -0.00044206    0.00004902
     atom   87 type  1   force =    -0.00017869   -0.00148678    0.00028316
     atom   88 type  1   force =    -0.00176945   -0.00017905   -0.00048006
     atom   89 type  1   force =     0.00013204   -0.00002012   -0.00057214
     atom   90 type  1   force =     0.00009774   -0.00039060    0.00098510
     atom   91 type  1   force =     0.00071097   -0.00046266   -0.00049322
     atom   92 type  1   force =    -0.00072077    0.00040353    0.00067645
     atom   93 type  1   force =     0.00005598   -0.00030911   -0.00088768
     atom   94 type  1   force =    -0.00012629   -0.00037623    0.00098055
     atom   95 type  1   force =     0.00003909    0.00003713   -0.00059056
     atom   96 type  1   force =     0.00002711    0.00061030    0.00057183
     atom   97 type  1   force =     0.00022756    0.00060796   -0.00118313
     atom   98 type  1   force =    -0.00066034   -0.00113697    0.00072762
     atom   99 type  1   force =     0.00029866   -0.00065203   -0.00046538
     atom  100 type  1   force =     0.00041435    0.00156223    0.00054061
     atom  101 type  1   force =    -0.00122329   -0.00064043   -0.00011528
     atom  102 type  1   force =    -0.00039906   -0.00389153   -0.00000990
     atom  103 type  1   force =    -0.00114905    0.00092174    0.00027736
     atom  104 type  1   force =     0.00076464    0.00165962   -0.00048821
     atom  105 type  1   force =     0.00006069   -0.00242546   -0.00716121
     atom  106 type  1   force =     0.00161896    0.00100559    0.00713393
     atom  107 type  1   force =    -0.00095526   -0.00053594    0.00228671
     atom  108 type  1   force =    -0.00047359   -0.00029264    0.00825300
     atom  109 type  1   force =     0.01130891    0.01213071   -0.00743019
     atom  110 type  1   force =     0.00487308    0.01585559    0.00746454
     atom  111 type  1   force =    -0.00162666    0.00097447    0.00713506
     atom  112 type  1   force =    -0.01125421    0.01216232   -0.00743486
     atom  113 type  1   force =    -0.00489428    0.01584020    0.00747931
     atom  114 type  1   force =    -0.00002251   -0.00243493   -0.00716611
     atom  115 type  1   force =     0.00040538   -0.00388078   -0.00000766
     atom  116 type  1   force =     0.00089512   -0.00047894    0.00229298
     atom  117 type  1   force =     0.00040466   -0.00027589    0.00824940
     atom  118 type  1   force =     0.00119127   -0.00063325   -0.00011475
     atom  119 type  1   force =     0.00064511   -0.00120467    0.00072652
     atom  120 type  1   force =     0.00117666    0.00090200    0.00027685
     atom  121 type  1   force =    -0.00068444    0.00167835   -0.00048035
     atom  122 type  1   force =    -0.00023282    0.00067366   -0.00118320
     atom  123 type  1   force =     0.00002547   -0.00083907    0.00152919
     atom  124 type  1   force =    -0.00031617   -0.00062234   -0.00046612
     atom  125 type  1   force =    -0.00046094    0.00159163    0.00054619
     atom  126 type  1   force =    -0.00004031    0.00086616   -0.00152996
     atom  127 type  1   force =     0.00027014   -0.00067963    0.00121232
     atom  128 type  1   force =    -0.00002662   -0.00053243   -0.00067651
     atom  129 type  1   force =    -0.00001928    0.00047051    0.00069203
     atom  130 type  1   force =    -0.00066908    0.00119871   -0.00073905
     atom  131 type  1   force =    -0.00123082    0.00059060    0.00014395
     atom  132 type  1   force =     0.00010568   -0.00133586   -0.00025668
     atom  133 type  1   force =     0.00008018    0.00134009    0.00026255
     atom  134 type  1   force =    -0.00041458    0.00388384    0.00003237
     atom  135 type  1   force =     0.00001495    0.00246789    0.00710314
     atom  136 type  1   force =    -0.00033444   -0.00222013   -0.00507749
     atom  137 type  1   force =    -0.00038942    0.00215347    0.00502825
     atom  138 type  1   force =     0.00166699   -0.00089265   -0.00716907
     atom  139 type  1   force =     0.01617277    0.00373198   -0.00745427
     atom  140 type  1   force =     0.01618493   -0.00371839    0.00751288
     atom  141 type  1   force =    -0.00158228   -0.00090971   -0.00716305
     atom  142 type  1   force =    -0.00012327    0.00246501    0.00710793
     atom  143 type  1   force =    -0.01619074    0.00368056   -0.00742114
     atom  144 type  1   force =    -0.01615859   -0.00365358    0.00747507
     atom  145 type  1   force =     0.00047753    0.00388135    0.00003132
     atom  146 type  1   force =     0.00113762    0.00059901    0.00014146
     atom  147 type  1   force =     0.00038846   -0.00219581   -0.00507754
     atom  148 type  1   force =     0.00041932    0.00217723    0.00503266
     atom  149 type  1   force =     0.00069154    0.00119996   -0.00075025
     atom  150 type  1   force =    -0.00022389   -0.00066741    0.00120125
     atom  151 type  1   force =    -0.00007922   -0.00138419   -0.00026507
     atom  152 type  1   force =    -0.00007816    0.00129656    0.00026432
     atom  153 type  1   force =     0.00011994    0.00032426   -0.00099134
     atom  154 type  1   force =    -0.00002125    0.00036075    0.00092014
     atom  155 type  1   force =    -0.00045126   -0.00153936   -0.00055578
     atom  156 type  1   force =    -0.00031177    0.00067851    0.00049372
     atom  157 type  1   force =    -0.00009914    0.00036622   -0.00099353
     atom  158 type  1   force =    -0.00014683    0.00006333    0.00060193
     atom  159 type  1   force =     0.00047841   -0.00149891   -0.00055874
     atom  160 type  1   force =     0.00031887    0.00067487    0.00050350
     atom  161 type  1   force =    -0.00076784    0.00043721   -0.00007845
     atom  162 type  1   force =     0.00013118   -0.00004400   -0.00112971
     atom  163 type  1   force =     0.00071129   -0.00161483    0.00046307
     atom  164 type  1   force =    -0.00122536   -0.00086119   -0.00027736
     atom  165 type  1   force =    -0.00357190   -0.00154881    0.00003000
     atom  166 type  1   force =    -0.00210329   -0.00126478    0.00711391
     atom  167 type  1   force =    -0.00043079    0.00019695   -0.00828126
     atom  168 type  1   force =    -0.00091235    0.00059088   -0.00225446
     atom  169 type  1   force =     0.00219006    0.00115314   -0.00716658
     atom  170 type  1   force =    -0.00002586   -0.00180595    0.00715214
     atom  171 type  1   force =     0.00488212   -0.01583723   -0.00745223
     atom  172 type  1   force =     0.01132429   -0.01217240    0.00749994
     atom  173 type  1   force =    -0.00218030    0.00115182   -0.00715145
     atom  174 type  1   force =     0.00209259   -0.00131822    0.00710182
     atom  175 type  1   force =    -0.00486274   -0.01586053   -0.00745585
     atom  176 type  1   force =    -0.01128102   -0.01215253    0.00748658
     atom  177 type  1   force =     0.00361776   -0.00154208    0.00004221
     atom  178 type  1   force =    -0.00017403   -0.00006980   -0.00113234
     atom  179 type  1   force =     0.00036410    0.00020479   -0.00828543
     atom  180 type  1   force =     0.00097508    0.00055860   -0.00225738
     atom  181 type  1   force =     0.00071146    0.00045707   -0.00007685
     atom  182 type  1   force =     0.00018608    0.00007707    0.00059638
     atom  183 type  1   force =    -0.00080590   -0.00163477    0.00046380
     atom  184 type  1   force =     0.00114285   -0.00085954   -0.00028113
     atom  185 type  1   force =     0.00032195   -0.00006448   -0.00099611
     atom  186 type  1   force =    -0.00031975   -0.00022063    0.00062199
     atom  187 type  1   force =    -0.00072256   -0.00040848   -0.00069989
     atom  188 type  1   force =     0.00074120    0.00042496    0.00051463
     atom  189 type  1   force =     0.00004557    0.00000923   -0.00091585
     atom  190 type  1   force =     0.00030512   -0.00019634    0.00062179
     atom  191 type  1   force =     0.00002517   -0.00064703   -0.00058238
     atom  192 type  1   force =     0.00001188   -0.00009099    0.00061309
     atom  193 type  1   force =    -0.00039808   -0.00008035   -0.00099934
     atom  194 type  1   force =    -0.00008744    0.00007962    0.00060316
     atom  195 type  1   force =     0.00067639   -0.00043667   -0.00070450
     atom  196 type  1   force =    -0.00077438    0.00039343    0.00051380
     atom  197 type  1   force =    -0.00134723   -0.00003046   -0.00073981
     atom  198 type  1   force =    -0.00113679    0.00067841    0.00014260
     atom  199 type  1   force =     0.00179460    0.00022336    0.00046571
     atom  200 type  1   force =     0.00016056    0.00149360   -0.00027626
     atom  201 type  1   force =    -0.00007965    0.00128444   -0.00011056
     atom  202 type  1   force =     0.00314390    0.00236673   -0.00000137
     atom  203 type  1   force =     0.00169742    0.00145897   -0.00507996
     atom  204 type  1   force =    -0.00210810   -0.00072399    0.00502974
     atom  205 type  1   force =     0.00004199   -0.00020132    0.00107972
     atom  206 type  1   force =    -0.00315986    0.00238053   -0.00000771
     atom  207 type  1   force =    -0.00000824    0.00111675    0.00228516
     atom  208 type  1   force =    -0.00001630    0.00040942    0.00823849
     atom  209 type  1   force =     0.00003374    0.00127547   -0.00011122
     atom  210 type  1   force =     0.00110016    0.00067927    0.00014157
     atom  211 type  1   force =    -0.00166186    0.00153479   -0.00509496
     atom  212 type  1   force =     0.00212741   -0.00068540    0.00502917
     atom  213 type  1   force =     0.00139736   -0.00005393   -0.00074327
     atom  214 type  1   force =     0.00012800    0.00011243    0.00059895
     atom  215 type  1   force =    -0.00180141    0.00015917    0.00046977
     atom  216 type  1   force =    -0.00017365    0.00145412   -0.00027505
     atom  217 type  1   force =     0.00075007   -0.00046136   -0.00152691
     atom  218 type  1   force =     0.00027047   -0.00015642    0.00092256
     atom  219 type  1   force =    -0.00155849    0.00037225   -0.00055475
     atom  220 type  1   force =     0.00043620   -0.00058041    0.00049837
     atom  221 type  1   force =     0.00025539   -0.00025262   -0.00099460
     atom  222 type  1   force =     0.00000325    0.00038833    0.00062120
     atom  223 type  1   force =    -0.00055271    0.00034877   -0.00058690
     atom  224 type  1   force =    -0.00005914    0.00008028    0.00061680
     atom  225 type  1   force =    -0.00023823   -0.00031626   -0.00099269
     atom  226 type  1   force =    -0.00029240   -0.00013879    0.00092091
     atom  227 type  1   force =     0.00053669    0.00032579   -0.00058237
     atom  228 type  1   force =     0.00005241    0.00004951    0.00061203
     atom  229 type  1   force =    -0.00074608   -0.00041361   -0.00152683
     atom  230 type  1   force =     0.00069281    0.00011288    0.00120578
     atom  231 type  1   force =     0.00156904    0.00041084   -0.00056158
     atom  232 type  1   force =    -0.00039971   -0.00054587    0.00050251
     atom  233 type  1   force =    -0.00045121   -0.00056098   -0.00118502
     atom  234 type  1   force =     0.00065380    0.00119584    0.00072895
     atom  235 type  1   force =     0.00117254    0.00059246   -0.00025837
     atom  236 type  1   force =    -0.00115625   -0.00069922    0.00026530
     atom  237 type  1   force =    -0.00005208    0.00019574   -0.00057247
     atom  238 type  1   force =     0.00006249    0.00086591    0.00004980
     atom  239 type  1   force =    -0.00133957    0.00059261    0.00028344
     atom  240 type  1   force =    -0.00102681   -0.00152924   -0.00048279
     atom  241 type  1   force =     0.00005797    0.00012824   -0.00057474
     atom  242 type  1   force =    -0.00071908    0.00117837    0.00072698
     atom  243 type  1   force =     0.00137345    0.00059800    0.00027272
     atom  244 type  1   force =     0.00105594   -0.00149167   -0.00048438
     atom  245 type  1   force =     0.00044932   -0.00051259   -0.00118439
     atom  246 type  1   force =    -0.00065757    0.00014331    0.00120828
     atom  247 type  1   force =    -0.00120028    0.00059542   -0.00026661
     atom  248 type  1   force =     0.00108990   -0.00073259    0.00026984

     Total force =     0.079196     Total SCF correction =     0.000192


     entering subroutine stress ...

          total   stress  (Ry/bohr**3)                   (kbar)     P= -713.75
  -0.00558962  -0.00000001   0.00000000       -822.26      0.00      0.00
  -0.00000001  -0.00558958  -0.00000001          0.00   -822.26      0.00
   0.00000000  -0.00000001  -0.00337663          0.00      0.00   -496.72


     Damped Dynamics Calculation

     Entering Dynamics:    iteration =     1

ATOMIC_POSITIONS (crystal)
C        0.043778339   0.085265915   0.405089460
C        0.085772748   0.043272201   0.910967384
C        0.002725445   0.002339093   0.404604027
C        0.002845783   0.002219363   0.911459064
C        0.167986720   0.084033946   0.402556487
C        0.210713540   0.043101162   0.906987419
C        0.127227922   0.001653551   0.402688020
C        0.127742325   0.001787256   0.908951534
C        0.293452071   0.083611510   0.401568359
C        0.335683952   0.043099547   0.906989208
C        0.252254660   0.001216350   0.401881057
C        0.252405952   0.001515593   0.906572814
C        0.419340272   0.084030355   0.402555351
C        0.460793912   0.043267744   0.910975258
C        0.377719320   0.001650485   0.402687212
C        0.377341258   0.001783961   0.908957700
C        0.544779484   0.085261446   0.405098889
C        0.585988323   0.043875563   0.912760881
C        0.502905714   0.002334686   0.404610496
C        0.502667282   0.002214679   0.911472598
C        0.669930936   0.085848738   0.407737141
C        0.711315577   0.044486737   0.913735592
C        0.628233063   0.002767600   0.407109652
C        0.627853078   0.002899287   0.913423813
C        0.794555192   0.085817907   0.409163246
C        0.836466147   0.044487845   0.913725813
C        0.753166191   0.003039212   0.409490544
C        0.753315233   0.003335960   0.914237200
C        0.919214730   0.085852093   0.407721962
C        0.961185245   0.043879714   0.912744850
C        0.877831025   0.002770686   0.407100178
C        0.878342914   0.002902340   0.913408664
C        0.043609141   0.210205844   0.409065837
C        0.084542096   0.167480199   0.913538169
C        0.002294271   0.127235138   0.407093260
C        0.002162152   0.126721881   0.913411098
C        0.167143325   0.208894703   0.407868032
C        0.209402883   0.166636189   0.908212187
C        0.126340196   0.126069955   0.403842188
C        0.126577337   0.125833631   0.912233455
C        0.291645987   0.206314677   0.410115923
C        0.335756327   0.168214984   0.895392162
C        0.250905062   0.124660529   0.402493696
C        0.251973970   0.126149271   0.903979292
C        0.417960923   0.206310885   0.410113730
C        0.460529558   0.166632527   0.908211070
C        0.377047986   0.124658099   0.402492039
C        0.377471970   0.126147523   0.903979053
C        0.545042775   0.208888614   0.407868914
C        0.586233570   0.167476034   0.913543480
C        0.503022225   0.126064492   0.403845614
C        0.502551233   0.125828901   0.912236272
C        0.669889492   0.210202417   0.409077294
C        0.711316974   0.168595946   0.913733864
C        0.628232810   0.127231145   0.407108168
C        0.627854279   0.126718699   0.913423472
C        0.794555497   0.210507917   0.409164688
C        0.836119736   0.168944914   0.913465365
C        0.752923948   0.127346652   0.408913884
C        0.752908372   0.127338001   0.913499391
C        0.919247214   0.210509962   0.409155742
C        0.960575714   0.168597787   0.913723511
C        0.877717576   0.127348871   0.408903417
C        0.877725713   0.127339568   0.913491083
C        0.043608645   0.335175437   0.409070080
C        0.084122020   0.292944717   0.914542111
C        0.002024189   0.251897980   0.409479459
C        0.001726405   0.251747428   0.914231755
C        0.168722836   0.335246511   0.420686983
C        0.206823657   0.291138346   0.905985954
C        0.126657005   0.251465567   0.412091355
C        0.125170041   0.250398039   0.913611468
C        0.289783522   0.329861931   0.457754654
C        0.330371242   0.289276277   0.858334059
C        0.249843862   0.249270820   0.417496109
C        0.249779496   0.249336837   0.898595512
C        0.411957442   0.320618562   0.497711935
C        0.462207407   0.289275898   0.858326754
C        0.374116922   0.244940827   0.420387935
C        0.376974457   0.250649331   0.867704477
C        0.543365177   0.329853002   0.457757557
C        0.587612386   0.291135201   0.905979306
C        0.502716875   0.249264094   0.417492402
C        0.502855520   0.249333839   0.898593100
C        0.669817877   0.335242344   0.420687352
C        0.712120832   0.292943013   0.914537779
C        0.628101907   0.251459893   0.412094897
C        0.628524924   0.250394421   0.913609880
C        0.794859141   0.335172773   0.409076620
C        0.836467695   0.293747115   0.913722017
C        0.753166415   0.251895819   0.409489770
C        0.753316595   0.251746318   0.914234128
C        0.919214350   0.335134300   0.407727565
C        0.960575547   0.293747817   0.913722180
C        0.877717317   0.252140726   0.408906641
C        0.877725922   0.252155722   0.913488533
C        0.043778044   0.460283629   0.405092716
C        0.084541547   0.418830885   0.913540204
C        0.002294199   0.376831693   0.407099211
C        0.002162086   0.377210404   0.913410600
C        0.167141703   0.460018487   0.407869324
C        0.206821548   0.417450979   0.905988506
C        0.126656534   0.376962483   0.412094095
C        0.125169082   0.376539186   0.913613959
C        0.289783479   0.461695406   0.457760371
C        0.321125486   0.411446848   0.818372102
C        0.251156706   0.376463958   0.448385248
C        0.245449925   0.373608001   0.895709046
C        0.364800090   0.352808747   0.554623052
C        0.353315705   0.364290515   0.761463090
C        0.593616471   0.411443131   0.818366495
C        0.491301013   0.352807886   0.554608558
C        0.514273208   0.364291518   0.761471455
C        0.675203337   0.461687705   0.457751393
C        0.713928570   0.417451295   0.905969835
C        0.628599320   0.376458669   0.448381676
C        0.631455688   0.373605956   0.895697324
C        0.796171008   0.460016480   0.407877793
C        0.837587020   0.418830675   0.913529474
C        0.753599748   0.376959037   0.412098697
C        0.754668811   0.376539331   0.913599645
C        0.919800200   0.460283522   0.405098365
C        0.961186481   0.419075840   0.912744558
C        0.877831134   0.376831275   0.407103844
C        0.878344689   0.377210535   0.913406502
C        0.044385739   0.585478192   0.403341724
C        0.085772556   0.544268703   0.910973058
C        0.002725220   0.502157104   0.404606499
C        0.002846412   0.502395610   0.911463819
C        0.167986471   0.585722417   0.402553743
C        0.209399710   0.544531683   0.908216591
C        0.126338890   0.502040263   0.403843215
C        0.126576134   0.502511789   0.912236249
C        0.291644767   0.587098707   0.410112911
C        0.330362979   0.542852825   0.858328795
C        0.249842320   0.502343087   0.417492731
C        0.249775367   0.502205360   0.898600166
C        0.411953475   0.593101055   0.497713171
C        0.364799637   0.513758611   0.554610906
C        0.353314619   0.490789235   0.761472499
C        0.684445124   0.593104224   0.497709670
C        0.715790656   0.542860627   0.858324151
C        0.652255152   0.513757680   0.554617460
C        0.640775022   0.490790438   0.761456549
C        0.798750351   0.587098316   0.410120295
C        0.838431139   0.544534166   0.908203462
C        0.755795451   0.502340099   0.417501090
C        0.755731476   0.502209379   0.898579601
C        0.921031131   0.585721599   0.402563225
C        0.961795353   0.544269698   0.910970417
C        0.878996550   0.502039396   0.403852528
C        0.879234351   0.502511672   0.912227988
C        0.044996169   0.710805705   0.402389286
C        0.086359537   0.669421004   0.908329475
C        0.003410504   0.627343354   0.402690660
C        0.003279704   0.627723446   0.908958908
C        0.169104876   0.710806169   0.402386857
C        0.210713329   0.669378389   0.906993367
C        0.127228576   0.627343779   0.402685595
C        0.127742444   0.627722723   0.908959652
C        0.293452964   0.711608128   0.401568610
C        0.335753611   0.669305307   0.895396174
C        0.250904290   0.628012812   0.402490530
C        0.251971555   0.627589891   0.903984589
C        0.417962079   0.713414382   0.410118537
C        0.462198334   0.674688952   0.858332374
C        0.374115631   0.630941386   0.420387613
C        0.376970003   0.628085446   0.867706758
C        0.543370209   0.715276337   0.457757062
C        0.593614552   0.683931865   0.818368965
C        0.491301015   0.640259781   0.554624043
C        0.514267602   0.651741813   0.761460663
C        0.675206852   0.715277038   0.457761883
C        0.715787994   0.674695854   0.858322761
C        0.652254204   0.640257547   0.554611612
C        0.640769294   0.651742534   0.761473322
C        0.798751087   0.713416577   0.410117390
C        0.836851710   0.669308873   0.895387424
C        0.760122186   0.630943190   0.420388407
C        0.754416963   0.628090681   0.867698175
C        0.921451045   0.711609240   0.401571122
C        0.961966140   0.669381172   0.906990724
C        0.880402680   0.628012493   0.402499024
C        0.878918003   0.627593191   0.903976411
C        0.044995224   0.835958020   0.402389006
C        0.086326655   0.794046479   0.906895379
C        0.003845014   0.752806446   0.401882908
C        0.003549331   0.752658021   0.906572931
C        0.169452889   0.835609861   0.402655821
C        0.211017879   0.794045408   0.906898444
C        0.127846705   0.752397732   0.402626022
C        0.127856452   0.752413912   0.907150696
C        0.294256107   0.835956696   0.402388321
C        0.335683366   0.794347654   0.906992562
C        0.252255858   0.752805209   0.401881073
C        0.252406323   0.752655673   0.906577787
C        0.419340902   0.837074086   0.402560332
C        0.460527209   0.795658122   0.908209317
C        0.377049449   0.754155658   0.402496148
C        0.377470122   0.753086568   0.903981634
C        0.545044101   0.837917764   0.407876875
C        0.587608430   0.798236839   0.905972715
C        0.502719557   0.755216920   0.417501468
C        0.502851130   0.755280882   0.898586588
C        0.669818160   0.836339829   0.420692941
C        0.713925515   0.798240349   0.905971663
C        0.628600318   0.753903778   0.448387240
C        0.631452874   0.759609749   0.895695923
C        0.796171336   0.837921336   0.407877225
C        0.838430079   0.795662869   0.908200939
C        0.755796316   0.755219365   0.417500000
C        0.755729026   0.755286657   0.898584054
C        0.921030777   0.837076479   0.402559543
C        0.961964764   0.794351298   0.906983749
C        0.880403627   0.754157249   0.402495248
C        0.878917141   0.753090928   0.903972669
C        0.044385755   0.960677635   0.403341888
C        0.086359403   0.918706949   0.908319379
C        0.003409888   0.877835526   0.402689269
C        0.003278716   0.877323926   0.908948228
C        0.169103864   0.960066411   0.402388498
C        0.211018172   0.918738262   0.906894693
C        0.127846466   0.877216729   0.402626289
C        0.127856529   0.877209508   0.907144861
C        0.294255597   0.960064600   0.402387315
C        0.335643482   0.918703918   0.908327851
C        0.252664052   0.877215093   0.402625799
C        0.252649951   0.877207649   0.907149522
C        0.419585344   0.960674910   0.403343106
C        0.460794360   0.919289187   0.910975751
C        0.377720180   0.877833179   0.402689426
C        0.377341116   0.877320122   0.908959478
C        0.544779858   0.961283008   0.405101480
C        0.586231863   0.920519790   0.913542047
C        0.503022324   0.878721521   0.403850744
C        0.502549663   0.878484059   0.912235686
C        0.669890019   0.961454425   0.409080454
C        0.712118252   0.920940864   0.914538085
C        0.628102304   0.878405529   0.412101635
C        0.628522038   0.879890562   0.913605989
C        0.794859147   0.961455432   0.409076897
C        0.837584135   0.920523058   0.913529955
C        0.753599629   0.878407123   0.412101290
C        0.754665904   0.879893882   0.913601032
C        0.919800207   0.961287569   0.405094921
C        0.961794639   0.919293761   0.910962511
C        0.878995719   0.878725031   0.403849922
C        0.879232470   0.878488492   0.912223603



     Writing output data file C.save
     NEW-OLD atomic charge density approx. for the potential

     total cpu time spent up to now is      302.9 secs

     per-process dynamical memory:    41.8 Mb

     Self-consistent Calculation

     iteration #  1     ecut=    30.00 Ry     beta=0.30
     Davidson diagonalization with overlap
     ethr =  1.00E-06,  avg # of iterations =  3.0

     Threshold (ethr) on eigenvalues was too large:
     Diagonalizing with lowered threshold

     Davidson diagonalization with overlap
     ethr =  1.90E-08,  avg # of iterations =  6.0

     total cpu time spent up to now is      334.5 secs

     total energy              =   -2798.49825161 Ry
     Harris-Foulkes estimate   =   -2798.49833712 Ry
     estimated scf accuracy    <       0.00022484 Ry

     iteration #  2     ecut=    30.00 Ry     beta=0.30
     Davidson diagonalization with overlap
     ethr =  2.27E-08,  avg # of iterations =  5.0

     total cpu time spent up to now is      349.2 secs

     total energy              =   -2798.49824829 Ry
     Harris-Foulkes estimate   =   -2798.49828975 Ry
     estimated scf accuracy    <       0.00014909 Ry

     iteration #  3     ecut=    30.00 Ry     beta=0.30
     Davidson diagonalization with overlap
     ethr =  1.50E-08,  avg # of iterations =  6.0

     total cpu time spent up to now is      366.1 secs

     total energy              =   -2798.49825828 Ry
     Harris-Foulkes estimate   =   -2798.49828756 Ry
     estimated scf accuracy    <       0.00016336 Ry

     iteration #  4     ecut=    30.00 Ry     beta=0.30
     Davidson diagonalization with overlap
     ethr =  1.50E-08,  avg # of iterations =  4.0

     total cpu time spent up to now is      377.3 secs

     total energy              =   -2798.49826532 Ry
     Harris-Foulkes estimate   =   -2798.49827674 Ry
     estimated scf accuracy    <       0.00007920 Ry

     iteration #  5     ecut=    30.00 Ry     beta=0.30
     Davidson diagonalization with overlap
     ethr =  7.98E-09,  avg # of iterations =  4.0

     total cpu time spent up to now is      388.3 secs

     total energy              =   -2798.49827093 Ry
     Harris-Foulkes estimate   =   -2798.49827346 Ry
     estimated scf accuracy    <       0.00001773 Ry

     iteration #  6     ecut=    30.00 Ry     beta=0.30
     Davidson diagonalization with overlap
     ethr =  1.79E-09,  avg # of iterations =  4.0

     total cpu time spent up to now is      399.4 secs

     total energy              =   -2798.49827263 Ry
     Harris-Foulkes estimate   =   -2798.49827244 Ry
     estimated scf accuracy    <       0.00000200 Ry

     iteration #  7     ecut=    30.00 Ry     beta=0.30
     Davidson diagonalization with overlap
     ethr =  2.02E-10,  avg # of iterations =  5.0

     total cpu time spent up to now is      414.0 secs

     total energy              =   -2798.49827224 Ry
     Harris-Foulkes estimate   =   -2798.49827302 Ry
     estimated scf accuracy    <       0.00000116 Ry

     iteration #  8     ecut=    30.00 Ry     beta=0.30
     Davidson diagonalization with overlap
     ethr =  1.16E-10,  avg # of iterations =  5.0

     total cpu time spent up to now is      427.9 secs

     total energy              =   -2798.49827237 Ry
     Harris-Foulkes estimate   =   -2798.49827241 Ry
     estimated scf accuracy    <       0.00000027 Ry

     iteration #  9     ecut=    30.00 Ry     beta=0.30
     Davidson diagonalization with overlap
     ethr =  2.75E-11,  avg # of iterations =  5.0

     total cpu time spent up to now is      442.2 secs

     total energy              =   -2798.49827212 Ry
     Harris-Foulkes estimate   =   -2798.49827241 Ry
     estimated scf accuracy    <       0.00000009 Ry

     iteration # 10     ecut=    30.00 Ry     beta=0.30
     Davidson diagonalization with overlap
     ethr =  8.95E-12,  avg # of iterations =  4.0

     total cpu time spent up to now is      453.9 secs

     total energy              =   -2798.49827213 Ry
     Harris-Foulkes estimate   =   -2798.49827214 Ry
     estimated scf accuracy    <       0.00000004 Ry

     iteration # 11     ecut=    30.00 Ry     beta=0.30
     Davidson diagonalization with overlap
     ethr =  3.96E-12,  avg # of iterations =  5.0

     total cpu time spent up to now is      467.7 secs

     total energy              =   -2798.49827213 Ry
     Harris-Foulkes estimate   =   -2798.49827214 Ry
     estimated scf accuracy    <       0.00000010 Ry

     iteration # 12     ecut=    30.00 Ry     beta=0.30
     Davidson diagonalization with overlap
     ethr =  3.96E-12,  avg # of iterations =  4.0

     total cpu time spent up to now is      478.8 secs

     End of self-consistent calculation

          k = 0.0000 0.0000 0.0000 ( 23151 PWs)   bands (ev):

   -13.5574 -13.3543 -13.3542 -13.1509 -13.1249 -13.1249 -13.1012 -13.0051
   -12.7651 -12.7650 -12.7467 -12.7466 -12.7416 -12.5692 -12.5691 -12.5604
   -12.5603 -12.4944 -12.4300 -12.2618 -12.1822 -12.1822 -12.1094 -12.0890
   -12.0890 -12.0561 -12.0560 -12.0450 -11.9549 -11.9549 -11.8531 -11.7948
   -11.7293 -11.6900 -11.6900 -11.5966 -11.5049 -11.5049 -11.2888 -11.2887
   -11.1225 -11.0316 -11.0316 -11.0192 -11.0192 -10.9887 -10.9636 -10.9635
   -10.8514 -10.7456 -10.7414 -10.7414 -10.7326 -10.7326 -10.6933 -10.6916
   -10.5388 -10.5374 -10.5373 -10.5274 -10.5274 -10.3827 -10.3131 -10.3131
   -10.2549 -10.2548 -10.0499 -10.0078  -9.9886  -9.8849  -9.8849  -9.8242
    -9.6785  -9.6785  -9.3379  -9.3378  -9.3311  -9.3311  -9.2628  -9.2628
    -9.2461  -9.1952  -9.1612  -9.1420  -9.1419  -9.0608  -9.0548  -9.0548
    -9.0335  -9.0165  -9.0165  -8.9935  -8.9449  -8.9448  -8.8315  -8.8307
    -8.8307  -8.7827  -8.7827  -8.7484  -8.7484  -8.6943  -8.6236  -8.6070
    -8.5768  -8.5767  -8.5570  -8.4898  -8.4898  -8.4137  -7.8827  -7.8826
    -7.8707  -7.8018  -7.8018  -7.7829  -7.6200  -7.6200  -7.5777  -7.5777
    -7.4274  -7.2454  -7.2454  -7.1166  -7.0569  -7.0568  -6.9749  -6.9748
    -6.9072  -6.8246  -6.7416  -6.7416  -6.6597  -6.5782  -6.4151  -6.4151
    -6.3863  -6.3638  -6.3638  -6.2545  -6.2544  -6.2446  -6.2446  -6.2258
    -6.1763  -6.1491  -6.1416  -6.1234  -6.1234  -6.0912  -6.0755  -6.0755
    -5.9706  -5.9706  -5.8954  -5.8954  -5.8822  -5.7669  -5.7669  -5.6112
    -5.5714  -5.5113  -5.5113  -5.4245  -5.4245  -5.3345  -5.0655  -5.0654
    -4.9227  -4.8617  -4.8190  -4.8050  -4.8050  -4.7864  -4.7864  -4.7296
    -4.7296  -4.7281  -4.6632  -4.6530  -4.6530  -4.5830  -4.5830  -4.4695
    -4.4226  -4.2915  -4.2915  -3.9110  -3.9110  -3.8008  -3.5885  -3.5884
    -3.5843  -3.5556  -3.5556  -3.4760  -3.4162  -3.4161  -3.4055  -3.3548
    -3.3547  -3.3446  -3.3313  -3.3312  -3.2983  -3.2162  -3.1518  -3.1343
    -3.1206  -3.1205  -3.0855  -3.0855  -3.0300  -3.0300  -3.0279  -3.0279
    -3.0160  -2.9963  -2.9241  -2.9241  -2.8762  -2.8761  -2.8748  -2.7736
    -2.7355  -2.6707  -2.6707  -2.6266  -2.5915  -2.5915  -2.4724  -2.4724
    -2.4116  -2.1931  -2.1589  -2.1589  -1.9620  -1.9619  -1.9577  -1.8766
    -1.8766  -1.8710  -1.8709  -1.7948  -1.7677  -1.7295  -1.7294  -1.6069
    -1.6069  -1.5697  -1.5066  -1.4595  -1.4595  -1.4483  -1.3622  -1.3622
    -1.3168  -1.3168  -1.3157  -1.3156  -1.3101  -1.3055  -1.2489  -1.2476
    -1.2476  -1.2276  -1.2070  -1.2070  -1.1953  -1.1953  -1.1755  -1.1693
    -1.1088  -1.1088  -1.1071  -1.0897  -1.0669  -1.0318  -1.0318  -0.9519
    -0.9519  -0.8602  -0.8602  -0.8281  -0.7952  -0.7652  -0.7477  -0.7477
    -0.7291  -0.7286  -0.7286  -0.6550  -0.6550  -0.5885  -0.5885  -0.5696
    -0.5696  -0.5680  -0.5343  -0.5198  -0.4861  -0.4861  -0.4720  -0.4620
    -0.4620  -0.4468  -0.4468  -0.4366  -0.4366  -0.4060  -0.4048  -0.3738
    -0.3679  -0.3679  -0.3223  -0.2823  -0.2822  -0.2653  -0.2187  -0.2187
    -0.1363  -0.1191  -0.1191  -0.0827  -0.0827  -0.0703  -0.0480  -0.0127
    -0.0127   0.0430   0.0474   0.0474   0.0803   0.0803   0.0816   0.1373
     0.1631   0.1631   0.2082   0.2082   0.2522   0.2523   0.2655   0.2814
     0.3508   0.3509   0.4157   0.4531   0.5550   0.5661   0.6043   0.6068
     0.6068   0.6094   0.6094   0.6689   0.6861   0.6861   0.7214   0.7215
     0.8607   0.8608   0.9442   0.9841   1.0127   1.0127   1.0240   1.0415
     1.0554   1.0554   1.0704   1.0790   1.0790   1.0897   1.0897   1.0946
     1.1111   1.1112   1.1193   1.1194   1.1270   1.1705   1.1812   1.1812
     1.1814   1.1814   1.1909   1.1909   1.2159   1.2159   1.2325   1.3182
     1.3797   1.4755   1.4833   1.4833   1.5300   1.5572   1.5572   1.5617
     1.5617   1.5885   1.6527   1.7046   1.7046   1.8392   1.8393   1.8933
     1.9883   1.9883   2.1148   2.1148   2.1242   2.1472   2.2383   2.2383
     2.3920   2.4006   2.4006   2.4151   2.4151   2.4305   2.4354   2.4501
     2.4713   2.4713   2.4808   2.4809   2.5033   2.5671   2.5671   2.6074
     2.6243   2.6299   2.6300   2.6492   2.6724   2.6724   2.7473   2.7473
     2.7783   2.7798   2.7799   2.7980   2.8622   2.8622   2.8979   2.9382
     2.9382   2.9560   3.0107   3.0107   3.0642   3.0642   3.1208   3.2110
     3.2438   3.3713   3.3714   3.5245   3.5245   3.6097   3.6097   3.7204
     3.7204   3.8932   4.0365   4.0365   4.0507   4.0507   4.0652   4.0683
     4.0683   4.0687   4.0792   4.0965   4.0965   4.1190   4.1604   4.1604
     4.2155   4.3863   4.4213   4.4213   4.5120   4.5120   4.5188   4.5853
     4.7758   4.7759   4.9885   4.9885   5.0448   5.4680   5.7443   5.7444
     5.9968   5.9968   6.3998   6.5623   6.6050

     the Fermi energy is     5.8070 ev

!    total energy              =   -2798.49827213 Ry
     Harris-Foulkes estimate   =   -2798.49827213 Ry
     estimated scf accuracy    <          3.1E-09 Ry

     convergence has been achieved in  12 iterations

     Forces acting on atoms (Ry/au):

     atom    1 type  1   force =     0.00018456    0.00006622   -0.00106717
     atom    2 type  1   force =    -0.00004005    0.00018765    0.00109461
     atom    3 type  1   force =    -0.00004874    0.00000340   -0.00079294
     atom    4 type  1   force =     0.00003462   -0.00003709    0.00080865
     atom    5 type  1   force =     0.00002283   -0.00026491   -0.00064063
     atom    6 type  1   force =    -0.00003828   -0.00032090    0.00054483
     atom    7 type  1   force =    -0.00043758    0.00048363   -0.00065514
     atom    8 type  1   force =     0.00044879   -0.00008702    0.00058110
     atom    9 type  1   force =    -0.00001990   -0.00012149   -0.00003258
     atom   10 type  1   force =     0.00004446   -0.00031052    0.00054702
     atom   11 type  1   force =    -0.00003230    0.00024142   -0.00070881
     atom   12 type  1   force =    -0.00001767   -0.00049928    0.00052353
     atom   13 type  1   force =     0.00002146   -0.00024721   -0.00064124
     atom   14 type  1   force =     0.00004936    0.00019716    0.00108766
     atom   15 type  1   force =     0.00047969    0.00048538   -0.00065555
     atom   16 type  1   force =    -0.00042576   -0.00007153    0.00057889
     atom   17 type  1   force =    -0.00023977    0.00006326   -0.00106860
     atom   18 type  1   force =     0.00005465    0.00000803    0.00139734
     atom   19 type  1   force =     0.00001066    0.00001496   -0.00079390
     atom   20 type  1   force =    -0.00004906   -0.00003632    0.00080819
     atom   21 type  1   force =     0.00028641    0.00014496   -0.00084638
     atom   22 type  1   force =    -0.00001854   -0.00009293    0.00091725
     atom   23 type  1   force =     0.00044823    0.00006480   -0.00054637
     atom   24 type  1   force =    -0.00045724   -0.00050667    0.00063586
     atom   25 type  1   force =    -0.00002252   -0.00009894   -0.00059999
     atom   26 type  1   force =     0.00002865   -0.00011310    0.00092701
     atom   27 type  1   force =    -0.00001043    0.00048688   -0.00050155
     atom   28 type  1   force =     0.00000319   -0.00027598    0.00067735
     atom   29 type  1   force =    -0.00024533    0.00014617   -0.00083928
     atom   30 type  1   force =    -0.00005428    0.00001241    0.00139415
     atom   31 type  1   force =    -0.00041489    0.00006747   -0.00054357
[...]
     atom  187 type  1   force =    -0.00001063   -0.00002847    0.00001381
     atom  188 type  1   force =     0.00005384    0.00002680   -0.00004522
     atom  189 type  1   force =     0.00000720   -0.00000397    0.00005979
     atom  190 type  1   force =     0.00000966   -0.00000212    0.00001774
     atom  191 type  1   force =     0.00001774   -0.00000397    0.00005224
     atom  192 type  1   force =     0.00000121    0.00000917    0.00004044
     atom  193 type  1   force =    -0.00000885    0.00003115    0.00004750
     atom  194 type  1   force =    -0.00000206    0.00000455    0.00001773
     atom  195 type  1   force =     0.00003418    0.00000913    0.00001314
     atom  196 type  1   force =    -0.00005234    0.00003343   -0.00004631
     atom  197 type  1   force =    -0.00001728    0.00002549    0.00000356
     atom  198 type  1   force =    -0.00000605    0.00000991    0.00002268
     atom  199 type  1   force =     0.00001451    0.00000510   -0.00000568
     atom  200 type  1   force =    -0.00000539    0.00001118    0.00003762
     atom  201 type  1   force =    -0.00000225    0.00000167   -0.00002480
     atom  202 type  1   force =     0.00001058    0.00003068   -0.00000100
     atom  203 type  1   force =    -0.00005799   -0.00000406   -0.00004200
     atom  204 type  1   force =     0.00003438    0.00004302    0.00003199
     atom  205 type  1   force =    -0.00001280   -0.00001175   -0.00001763
     atom  206 type  1   force =     0.00001143   -0.00000408    0.00000495
     atom  207 type  1   force =    -0.00004748   -0.00000150    0.00002500
     atom  208 type  1   force =    -0.00001087    0.00003367    0.00001891
     atom  209 type  1   force =    -0.00002456   -0.00003898   -0.00001893
     atom  210 type  1   force =    -0.00001948   -0.00003442    0.00001650
     atom  211 type  1   force =    -0.00000041   -0.00003313   -0.00002731
     atom  212 type  1   force =    -0.00003155   -0.00002448    0.00001893
     atom  213 type  1   force =    -0.00000019   -0.00002875    0.00000073
     atom  214 type  1   force =    -0.00001134   -0.00002112    0.00001320
     atom  215 type  1   force =     0.00000423   -0.00003264   -0.00003473
     atom  216 type  1   force =     0.00000510   -0.00000618    0.00005262
     atom  217 type  1   force =    -0.00004240   -0.00000433   -0.00000865
     atom  218 type  1   force =    -0.00004969    0.00001192    0.00000089
     atom  219 type  1   force =    -0.00001664   -0.00000537    0.00003138
     atom  220 type  1   force =    -0.00000866   -0.00001361    0.00001319
     atom  221 type  1   force =    -0.00002522   -0.00003024    0.00004776
     atom  222 type  1   force =     0.00000100    0.00000735    0.00001788
     atom  223 type  1   force =    -0.00002183   -0.00001428    0.00005207
     atom  224 type  1   force =     0.00000533   -0.00000418    0.00004030
     atom  225 type  1   force =     0.00000132    0.00000786    0.00002841
     atom  226 type  1   force =     0.00004170    0.00003763    0.00000122
     atom  227 type  1   force =    -0.00001170    0.00003153    0.00005194
     atom  228 type  1   force =    -0.00001165   -0.00000465    0.00003990
     atom  229 type  1   force =     0.00001750    0.00002591   -0.00000949
     atom  230 type  1   force =    -0.00000935    0.00002270    0.00001978
     atom  231 type  1   force =     0.00002642    0.00002058    0.00002170
     atom  232 type  1   force =    -0.00001266    0.00000836    0.00002699
     atom  233 type  1   force =    -0.00001440    0.00001198   -0.00001665
     atom  234 type  1   force =    -0.00001851    0.00002831   -0.00000335
     atom  235 type  1   force =    -0.00000173   -0.00000342    0.00001588
     atom  236 type  1   force =     0.00000945   -0.00000846   -0.00001484
     atom  237 type  1   force =     0.00000169   -0.00000297   -0.00001760
     atom  238 type  1   force =    -0.00001834    0.00002330    0.00001040
     atom  239 type  1   force =    -0.00001066    0.00001713   -0.00004233
     atom  240 type  1   force =    -0.00000553   -0.00001839    0.00000390
     atom  241 type  1   force =    -0.00001007   -0.00002765   -0.00001246
     atom  242 type  1   force =    -0.00002510   -0.00000344    0.00000059
     atom  243 type  1   force =    -0.00000654    0.00000633   -0.00005830
     atom  244 type  1   force =    -0.00003002   -0.00003519    0.00003223
     atom  245 type  1   force =    -0.00002018   -0.00005790   -0.00002721
     atom  246 type  1   force =    -0.00003845   -0.00003924    0.00003049
     atom  247 type  1   force =     0.00000336   -0.00005308    0.00000397
     atom  248 type  1   force =    -0.00004996   -0.00003624   -0.00000237

     Total force =     0.000694     Total SCF correction =     0.000126
     SCF correction compared to forces is large: reduce conv_thr to get better values


     entering subroutine stress ...

          total   stress  (Ry/bohr**3)                   (kbar)     P= -720.83
  -0.00565369   0.00000000   0.00000002       -831.69      0.00      0.00
   0.00000000  -0.00565359  -0.00000001          0.00   -831.67      0.00
   0.00000002  -0.00000001  -0.00339313          0.00      0.00   -499.15


     Damped Dynamics: convergence achieved in  47 steps

     End of damped dynamics calculation

     Final energy =   -2798.5408757954 Ry

Begin final coordinates
     new unit-cell volume =  16641.66907 a.u.^3 (  2466.04090 Ang^3 )

CELL_PARAMETERS (alat=  1.88970000)
  20.466990000   0.000000000   0.000000000
 -10.233490000  17.724900000   0.000000000
   0.000000000   0.000000000   6.797990000

ATOMIC_POSITIONS (crystal)
C        0.044059607   0.085567664   0.389508490
C        0.086075183   0.043547802   0.926547134
C        0.002909460   0.002518158   0.388456760
C        0.003027153   0.002399342   0.927614239
C        0.168303936   0.084557122   0.386358827
C        0.210963907   0.043203574   0.921756162
C        0.127392444   0.001954699   0.385480120
C        0.127984625   0.001953727   0.924155116
C        0.293619110   0.084060673   0.384948708
C        0.335879172   0.043186398   0.921505267
C        0.252338124   0.001474884   0.384072920
C        0.252527960   0.001575460   0.921273333
C        0.419293737   0.084209531   0.386193667
C        0.460852358   0.043263676   0.926464937
C        0.377742410   0.001720834   0.385402889
C        0.377466908   0.001755698   0.923982022
C        0.544716429   0.085192569   0.389593368
C        0.585956227   0.043729760   0.929657839
C        0.502908274   0.002151694   0.388454607
C        0.502659658   0.002032058   0.927614174
C        0.669900565   0.085686876   0.392564450
C        0.711198898   0.044300335   0.931703591
C        0.628313178   0.002596197   0.391839626
C        0.627705313   0.002595647   0.930596775
C        0.794591559   0.085794211   0.394134891
C        0.836388535   0.044361523   0.931737461
C        0.753235355   0.002975767   0.394668020
C        0.753132336   0.003074009   0.931987857
C        0.919377624   0.085974202   0.392562459
C        0.961329790   0.043997549   0.929654836
C        0.877993348   0.002795282   0.392011762
C        0.878290429   0.002830089   0.930674194
C        0.043716199   0.210455047   0.394218813
C        0.085067099   0.167792295   0.929732475
C        0.002466151   0.127477267   0.391841166
C        0.002464608   0.126881668   0.930594750
C        0.167650224   0.209683761   0.393794443
C        0.210190370   0.167136778   0.922282302
C        0.126711478   0.126569857   0.388262909
C        0.127077214   0.126199635   0.927816982
C        0.292211129   0.207371643   0.396715342
C        0.336082040   0.168373170   0.906733471
C        0.251303809   0.125449018   0.386790860
C        0.252442987   0.126400809   0.917690072
C        0.418006304   0.206909137   0.396093064
C        0.460724836   0.166890750   0.922358140
C        0.377076511   0.125019281   0.386396667
C        0.377715973   0.126203451   0.917536048
C        0.544843500   0.208944373   0.393736799
C        0.586277776   0.167705522   0.929909977
C        0.502970341   0.126158324   0.388467152
C        0.502599908   0.125977205   0.927622525
C        0.669690971   0.210086559   0.394477603
C        0.711263410   0.168672173   0.931739498
C        0.628104916   0.127071347   0.392017075
C        0.627829407   0.126770455   0.930678701
C        0.794502790   0.210468839   0.394137365
C        0.836116767   0.168944677   0.932183152
C        0.752913315   0.127247978   0.393791115
C        0.752839747   0.127293361   0.931986326
C        0.919269903   0.210560031   0.394133706
C        0.960760235   0.168670592   0.931703204
C        0.877815715   0.127427388   0.393790024
C        0.877767950   0.127319009   0.931987686
C        0.043698951   0.335372030   0.394463693
C        0.084571154   0.293109409   0.931138893
C        0.002086915   0.252019766   0.394666151
C        0.001985185   0.251828564   0.931985027
C        0.168891019   0.335576349   0.409341848
C        0.207883159   0.291700130   0.919416339
C        0.126916265   0.251935614   0.398336056
C        0.125960759   0.250793982   0.929312083
C        0.289962915   0.331079343   0.452643143
C        0.331593836   0.289451935   0.863585536
C        0.250405184   0.250459181   0.406298294
C        0.250965227   0.249891615   0.909857434
C        0.412472583   0.321202837   0.493861097
C        0.463135610   0.289842064   0.861746891
C        0.374678225   0.246088351   0.409103264
C        0.377373008   0.250690834   0.872695313
C        0.542436918   0.329479701   0.454501523
C        0.587563157   0.291692785   0.920065021
C        0.502447491   0.249560097   0.405484475
C        0.503123247   0.249902281   0.910695935
C        0.669490461   0.335071507   0.409364562
C        0.711953170   0.293231117   0.931154557
C        0.627853993   0.251265034   0.398506346
C        0.628495691   0.250732264   0.929725219
C        0.794606815   0.335020463   0.394229922
C        0.836390275   0.293859677   0.931709938
C        0.753040817   0.251825906   0.394676112
C        0.753230640   0.251926328   0.931994212
C        0.919091617   0.335163573   0.392562981
C        0.960697436   0.293796980   0.931733171
C        0.877638109   0.252148662   0.393790362
C        0.877742442   0.252219492   0.931987313
C        0.043776599   0.460343551   0.389582203
C        0.084718596   0.418784345   0.929892103
C        0.002268901   0.376957825   0.392006698
C        0.002230256   0.377232206   0.930668357
C        0.167405540   0.460217007   0.393710225
C        0.207419712   0.417497731   0.920034500
C        0.126719166   0.377210278   0.398483734
C        0.125530067   0.376566929   0.929702163
C        0.290354479   0.462632335   0.454471828
C        0.321732823   0.411972241   0.822403536
C        0.251203787   0.376864522   0.443500226
C        0.246607074   0.374172721   0.907078757
C        0.364705983   0.353205719   0.555275784
C        0.353745545   0.364210484   0.761018470
C        0.593096019   0.411535106   0.822426208
C        0.491234820   0.353297722   0.551547734
C        0.514331322   0.364868402   0.764752477
C        0.673983407   0.460641286   0.452659797
C        0.713365700   0.417958009   0.919441113
C        0.628202952   0.376099313   0.443521581
C        0.630891001   0.374205573   0.907108262
C        0.795377649   0.459722932   0.393806985
C        0.837271027   0.419046985   0.929744079
C        0.753127782   0.376737496   0.398351487
C        0.754271286   0.376938972   0.929329487
C        0.919496030   0.460253470   0.389511119
C        0.961063920   0.419103964   0.929654889
C        0.877587606   0.376751010   0.391846909
C        0.878180559   0.377355158   0.930602873
C        0.044240976   0.585448209   0.386421982
C        0.085699529   0.544206632   0.926454857
C        0.002543429   0.502151360   0.388453774
C        0.002660164   0.502398622   0.927611693
C        0.168218348   0.585770483   0.386178721
C        0.209450229   0.544333621   0.922331878
C        0.126490996   0.502091258   0.388448231
C        0.126665579   0.502460009   0.927603949
C        0.292206198   0.587057455   0.396067455
C        0.329993483   0.541930464   0.861719139
C        0.250417873   0.502614796   0.405453179
C        0.250065698   0.501936794   0.910663409
C        0.412038546   0.592599669   0.493843902
C        0.365367567   0.513838463   0.551537075
C        0.353834615   0.490738947   0.764738329
C        0.683864169   0.593028488   0.493863345
C        0.715610269   0.543915124   0.863594970
C        0.651856084   0.513260208   0.555278846
C        0.640857165   0.491306583   0.761026978
C        0.797692872   0.586596807   0.396721455
C        0.837923712   0.544826966   0.922292974
C        0.754603602   0.501703034   0.406310665
C        0.755171363   0.502848876   0.909874890
C        0.920507117   0.585505606   0.386365401
C        0.961512125   0.544298351   0.926549663
C        0.878494203   0.501899953   0.388270347
C        0.878862199   0.502649186   0.927825295
C        0.044811756   0.710690075   0.384348580
C        0.086194917   0.669389383   0.923398798
C        0.003107673   0.627196755   0.385482593
C        0.003106756   0.627802846   0.924156178
C        0.169182667   0.710755023   0.384310567
C        0.210594466   0.669181195   0.921494918
C        0.127281963   0.627321369   0.385396438
C        0.127578019   0.627594550   0.923974547
C        0.293741479   0.711444182   0.384936741
C        0.335577734   0.668981017   0.906714187
C        0.251243346   0.627987997   0.386379245
C        0.251772046   0.627345005   0.917515876
C        0.418466749   0.712856791   0.396697407
C        0.461146213   0.673466156   0.863573817
C        0.374713012   0.630388094   0.409080601
C        0.376608737   0.627692124   0.872676556
C        0.544420199   0.715102845   0.452642504
C        0.593529522   0.683331459   0.822409844
C        0.491804973   0.640364933   0.555270734
C        0.513758098   0.651316163   0.761019389
C        0.675584871   0.714715233   0.454486662
C        0.715224475   0.675068069   0.861739861
C        0.651769840   0.639698029   0.551543984
C        0.640197739   0.651232200   0.764744253
C        0.798158388   0.712859002   0.396091980
C        0.836690611   0.669484380   0.906737321
C        0.758975844   0.630348754   0.409104338
C        0.754374044   0.628454733   0.872696589
C        0.921003649   0.711321260   0.384952473
C        0.961858899   0.669534256   0.921759292
C        0.879614372   0.627615137   0.386796919
C        0.878661741   0.627817489   0.917695774
C        0.044872702   0.835880158   0.384316222
C        0.086303269   0.794081778   0.921779982
C        0.003586083   0.752624279   0.384075500
C        0.003485324   0.752725632   0.921276486
C        0.169455490   0.835607882   0.383838303
C        0.210977619   0.793992430   0.921777825
C        0.127804460   0.752330344   0.384046807
C        0.127756986   0.752402874   0.922126016
C        0.294369674   0.835882029   0.384342373
C        0.335527484   0.794095742   0.921745257
C        0.252436201   0.752722356   0.384066001
C        0.252334011   0.752530334   0.921265549
C        0.419556855   0.836761886   0.386350304
C        0.460230620   0.794867781   0.922274536
C        0.377448676   0.753762895   0.386777898
C        0.377243853   0.752617173   0.917676681
C        0.545336488   0.837413232   0.393786094
C        0.587101736   0.797177176   0.919423510
C        0.503358819   0.754660080   0.406285364
C        0.502210661   0.754093271   0.909853001
C        0.669992799   0.836176532   0.409347126
C        0.713368361   0.797645189   0.920048709
C        0.628965267   0.753863558   0.443506544
C        0.630852928   0.758455087   0.907090974
C        0.796117133   0.837659643   0.393727850
C        0.838170585   0.795608462   0.922353996
C        0.755505590   0.754649960   0.405476158
C        0.755161821   0.754997407   0.910684389
C        0.920855382   0.836844353   0.386194111
C        0.961875362   0.794466065   0.921511130
C        0.880046392   0.753818358   0.386398212
C        0.878859712   0.753287393   0.917538431
C        0.044508225   0.960820084   0.386424252
C        0.086482541   0.918866622   0.923402819
C        0.003341160   0.877781428   0.385404380
C        0.003305872   0.877484162   0.923986361
C        0.169180774   0.960250609   0.384346982
C        0.211068193   0.918758434   0.921780227
C        0.127829229   0.877259289   0.384047512
C        0.127935858   0.877305054   0.922127115
C        0.294306911   0.960187680   0.384314805
C        0.335672361   0.918579813   0.923398834
C        0.252730609   0.877233466   0.384046142
C        0.252657377   0.877126464   0.922126932
C        0.419613974   0.960555199   0.386421829
C        0.460761422   0.918985649   0.926543232
C        0.377865003   0.877672115   0.385474989
C        0.377259267   0.877077514   0.924148006
C        0.544808214   0.961001886   0.389503175
C        0.586012703   0.919994822   0.929734701
C        0.503159926   0.878352585   0.388254811
C        0.502408557   0.877984071   0.927813686
C        0.670043014   0.961348632   0.394217983
C        0.711829825   0.920491340   0.931144930
C        0.628324984   0.878149769   0.398332611
C        0.628122483   0.879101172   0.929318142
C        0.794976259   0.961364718   0.394468542
C        0.837353789   0.920344008   0.929903356
C        0.753797196   0.878347295   0.398494170
C        0.754327711   0.879534608   0.929713081
C        0.919871484   0.961287375   0.389591140
C        0.961797627   0.919362122   0.926465939
C        0.878904502   0.878572792   0.388464669
C        0.879082623   0.878395842   0.927619727
End final coordinates



     Writing output data file C.save
 
     init_run     :      6.87s CPU      6.87s WALL (       1 calls)
     electrons    :   7966.41s CPU   7966.41s WALL (      48 calls)
     update_pot   :     14.11s CPU     14.11s WALL (      47 calls)
     forces       :     72.81s CPU     72.81s WALL (      48 calls)
     stress       :    250.70s CPU    250.70s WALL (      48 calls)

     Called by init_run:
     wfcinit      :      4.06s CPU      4.06s WALL (       1 calls)
     potinit      :      0.13s CPU      0.13s WALL (       1 calls)

     Called by electrons:
     c_bands      :   7589.25s CPU   7589.25s WALL (     592 calls)
     sum_band     :    278.80s CPU    278.80s WALL (     592 calls)
     v_of_rho     :      4.83s CPU      4.83s WALL (     608 calls)
     mix_rho      :      2.82s CPU      2.82s WALL (     592 calls)

     Called by c_bands:
     init_us_2    :      4.08s CPU      4.08s WALL (    1185 calls)
     regterg      :   7576.39s CPU   7576.39s WALL (     592 calls)

     Called by sum_band:

     Called by *egterg:
     h_psi        :   1526.74s CPU   1526.74s WALL (    3188 calls)
     g_psi        :     10.04s CPU     10.04s WALL (    2595 calls)
     rdiaghg      :   5564.26s CPU   5564.26s WALL (    3108 calls)

     Called by h_psi:
     h_psi:pot    :   1524.76s CPU   1524.76s WALL (    3188 calls)
     h_psi:calbec :     81.74s CPU     81.74s WALL (    3188 calls)
     vloc_psi     :   1323.62s CPU   1323.62s WALL (    3188 calls)
     add_vuspsi   :    119.32s CPU    119.33s WALL (    3188 calls)

     General routines
     calbec       :     94.50s CPU     94.51s WALL (    3428 calls)
     fft          :     98.88s CPU     98.88s WALL (    2735 calls)
     fftw         :   1380.30s CPU   1380.71s WALL (  869898 calls)
 
     Parallel routines
     fft_scatter  :    757.40s CPU    757.60s WALL (  872633 calls)
 
     PWSCF        :     2h22m CPU        2h22m WALL

 
   This run was terminated on:   0:43:39  26Apr2017            

=------------------------------------------------------------------------------=
   JOB DONE.
=------------------------------------------------------------------------------=
